/*--------------------------------*- C++ -*----------------------------------*\
| =========                 |                                                 |
| \\      /  F ield         | OpenFOAM: The Open Source CFD Toolbox           |
|  \\    /   O peration     | Version:  v1806                                 |
|   \\  /    A nd           | Web:      www.OpenFOAM.com                      |
|    \\/     M anipulation  |                                                 |
\*---------------------------------------------------------------------------*/
FoamFile
{
    version     2.0;
    format      ascii;
    class       volScalarField;
    location    "0.035";
    object      T;
}
// * * * * * * * * * * * * * * * * * * * * * * * * * * * * * * * * * * * * * //

dimensions      [0 0 0 1 0 0 0];


internalField   nonuniform List<scalar> 
1881
(
5.49139e-40
7.5765e-40
6.59032e-39
2.40081e-37
8.96955e-36
3.06443e-34
9.46729e-33
2.61888e-31
6.40806e-30
1.36563e-28
2.48407e-27
3.75284e-26
4.53e-25
4.11863e-24
2.55165e-23
8.77086e-23
8.75485e-23
2.53447e-23
4.51394e-24
2.15614e-39
2.09952e-39
-2.93711e-39
-1.24482e-37
-1.53842e-36
5.35952e-35
4.88437e-33
2.24533e-31
7.72342e-30
2.13864e-28
4.83619e-27
8.84233e-26
1.27011e-24
1.35939e-23
9.83241e-23
3.88457e-22
3.8924e-22
9.9457e-23
1.52049e-23
-6.90816e-39
-1.03813e-38
-9.94778e-38
-3.47359e-36
-1.23318e-34
-4.0018e-33
-1.1726e-31
-3.0685e-30
-7.07447e-29
-1.41242e-27
-2.38741e-26
-3.31328e-25
-3.61371e-24
-2.89786e-23
-1.52892e-22
-4.3042e-22
-4.26898e-22
-1.48576e-22
-3.12094e-23
-7.12875e-38
-8.19001e-38
-2.77603e-37
-8.67557e-36
-3.4991e-34
-1.28888e-32
-4.26866e-31
-1.26088e-29
-3.28649e-28
-7.45234e-27
-1.44237e-25
-2.32111e-24
-2.99063e-23
-2.9109e-22
-1.93648e-21
-7.13507e-21
-7.13622e-21
-1.94047e-21
-3.21917e-22
-6.87708e-38
-3.9586e-38
7.04855e-37
2.54352e-35
7.75747e-34
2.06334e-32
4.59497e-31
7.7932e-30
6.82872e-29
-1.24699e-27
-7.45474e-26
-1.96843e-24
-3.48859e-23
-4.29567e-22
-3.43721e-21
-1.45963e-20
-1.46494e-20
-3.5096e-21
-4.86636e-22
1.37518e-36
1.66831e-36
6.83588e-36
2.03871e-34
7.4337e-33
2.49735e-31
7.59529e-30
2.06977e-28
4.99128e-27
1.04853e-25
1.87993e-24
2.79843e-23
3.32606e-22
2.97448e-21
1.81028e-20
6.11098e-20
6.09747e-20
1.7953e-20
3.25631e-21
5.83012e-36
6.23629e-36
1.10782e-35
2.5085e-34
1.12473e-32
4.53596e-31
1.61416e-29
5.0594e-28
1.38744e-26
3.2902e-25
6.63122e-24
1.1078e-22
1.47846e-21
1.48808e-20
1.02198e-19
3.87387e-19
3.87721e-19
1.02757e-19
1.65153e-20
-1.16316e-35
-1.57925e-35
-7.53262e-35
-2.11548e-33
-7.0379e-32
-2.14008e-30
-5.81875e-29
-1.3922e-27
-2.86919e-26
-4.93578e-25
-6.72811e-24
-6.52784e-23
-3.0934e-22
2.00908e-21
4.56685e-20
2.75929e-19
2.78671e-19
4.92367e-20
2.8181e-21
-1.61162e-34
-1.81805e-34
-4.29853e-34
-9.83321e-33
-3.64684e-31
-1.2603e-29
-3.94494e-28
-1.10711e-26
-2.75245e-25
-5.97058e-24
-1.10776e-22
-1.71129e-21
-2.11849e-20
-1.98217e-19
-1.26836e-18
-4.50934e-18
-4.50594e-18
-1.26562e-18
-2.18254e-19
-2.5539e-34
-2.42077e-34
-1.568e-34
-8.21263e-34
-1.41847e-31
-8.74409e-30
-3.89154e-28
-1.40779e-26
-4.276e-25
-1.09639e-23
-2.35283e-22
-4.14211e-21
-5.78309e-20
-6.05615e-19
-4.30767e-18
-1.6814e-17
-1.68393e-17
-4.34544e-18
-6.74423e-19
2.56456e-33
2.98791e-33
6.6514e-33
1.28499e-31
4.37603e-30
1.39802e-28
4.03605e-27
1.0402e-25
2.35988e-24
4.62911e-23
7.66835e-22
1.03868e-20
1.09805e-19
8.43178e-19
4.16444e-18
1.05492e-17
1.04359e-17
4.02483e-18
9.0771e-19
1.31667e-32
1.41993e-32
2.38783e-32
3.94643e-31
1.48138e-29
5.26454e-28
1.693e-26
4.87713e-25
1.2441e-23
2.76877e-22
5.27194e-21
8.36308e-20
1.06409e-18
1.02445e-17
6.75156e-17
2.46935e-16
2.46925e-16
6.75871e-17
1.13146e-17
-1.13386e-32
-1.60483e-32
-3.67891e-32
-4.74695e-31
-1.12746e-29
-2.05387e-28
-9.32286e-28
1.23983e-25
6.77258e-24
2.27226e-22
5.73283e-21
1.12751e-19
1.70878e-18
1.9076e-17
1.42812e-16
5.7984e-16
5.81157e-16
1.44672e-16
2.13399e-17
-2.97374e-31
-3.30242e-31
-5.18254e-31
-6.3869e-30
-2.15824e-28
-7.08725e-27
-2.1119e-25
-5.64129e-24
-1.33363e-22
-2.74574e-21
-4.82157e-20
-7.0213e-19
-8.14884e-18
-7.0973e-17
-4.19255e-16
-1.3709e-15
-1.36711e-15
-4.1494e-16
-7.7638e-17
-6.87204e-31
-6.97938e-31
-9.59807e-31
-1.29672e-29
-5.00003e-28
-1.83616e-26
-6.0813e-25
-1.79971e-23
-4.70768e-22
-1.07299e-20
-2.0906e-19
-3.39178e-18
-4.41252e-17
-4.34299e-16
-2.92533e-15
-1.09159e-14
-1.09203e-14
-2.93456e-15
-4.80573e-16
3.66125e-30
4.22515e-30
5.9381e-30
3.98625e-29
1.07101e-27
2.94818e-26
7.03768e-25
1.37948e-23
1.97107e-22
1.11065e-21
-3.90252e-20
-1.55197e-18
-3.14777e-17
-4.15445e-16
-3.47071e-15
-1.51633e-14
-1.52173e-14
-3.54388e-15
-4.69313e-16
2.42353e-29
2.60677e-29
3.40782e-29
2.71511e-28
8.88651e-27
2.97065e-25
9.03596e-24
2.46789e-22
5.97734e-21
1.26405e-19
2.28729e-18
3.44627e-17
4.15993e-16
3.79318e-15
2.36419e-14
8.19716e-14
8.18699e-14
2.35412e-14
4.17019e-15
4.63598e-30
-1.07668e-31
-1.07667e-30
3.08936e-28
1.39507e-26
5.36664e-25
1.8426e-23
5.62362e-22
1.5115e-20
3.53038e-19
7.03505e-18
1.16565e-16
1.54702e-15
1.552e-14
1.06456e-13
4.03707e-13
4.03994e-13
1.06952e-13
1.71945e-14
-4.34353e-28
-4.80405e-28
-5.85685e-28
-2.28944e-27
-5.6657e-26
-1.68462e-24
-4.52389e-23
-1.06766e-21
-2.16314e-20
-3.63286e-19
-4.75544e-18
-4.20287e-17
-1.158e-16
2.89048e-15
4.51185e-14
2.52769e-13
2.54597e-13
4.75024e-14
3.52545e-15
-1.39068e-27
-1.44048e-27
-1.68457e-27
-9.89497e-27
-3.13492e-25
-1.06127e-23
-3.2747e-22
-9.07982e-21
-2.23469e-19
-4.80756e-18
-8.86205e-17
-1.36252e-15
-1.68163e-14
-1.57144e-13
-1.00608e-12
-3.58449e-12
-3.58235e-12
-1.00457e-12
-1.73164e-13
3.62313e-27
4.2753e-27
5.08062e-27
-6.65434e-28
-3.17535e-25
-1.32602e-23
-4.77108e-22
-1.51058e-20
-4.18497e-19
-1.00306e-17
-2.04456e-16
-3.45706e-15
-4.67383e-14
-4.76968e-13
-3.32359e-12
-1.27766e-11
-1.27884e-11
-3.3427e-12
-5.288e-13
3.53616e-26
3.80811e-26
4.31793e-26
1.09706e-25
2.26123e-24
6.89776e-23
1.93481e-21
4.83342e-20
1.05796e-18
1.98782e-17
3.11783e-16
3.92065e-15
3.70936e-14
2.35391e-13
7.62289e-13
1.41219e-13
8.8802e-14
6.96534e-13
2.51048e-13
4.2149e-26
3.89507e-26
3.92467e-26
2.80995e-25
9.61093e-24
3.29391e-22
1.02626e-20
2.87407e-19
7.14815e-18
1.55499e-16
2.90057e-15
4.51659e-14
5.65121e-13
5.35936e-12
3.48546e-11
1.26111e-10
1.26078e-10
3.48536e-11
5.91264e-12
-4.79805e-25
-5.34069e-25
-6.05909e-25
-5.68849e-25
5.72913e-24
2.87533e-22
1.09513e-20
3.60753e-19
1.03038e-17
2.53112e-16
5.26658e-15
9.0646e-14
1.24489e-12
1.28846e-11
9.09286e-11
3.53328e-10
3.53703e-10
9.15127e-11
1.42877e-11
-2.12262e-24
-2.22459e-24
-2.39207e-24
-4.47766e-24
-7.30442e-23
-2.23752e-21
-6.40617e-20
-1.64162e-18
-3.70927e-17
-7.26009e-16
-1.20267e-14
-1.63363e-13
-1.73879e-12
-1.35273e-11
-6.84469e-11
-1.81251e-10
-1.79954e-10
-6.68807e-11
-1.4735e-11
1.71372e-24
2.2991e-24
2.98626e-24
-2.77093e-24
-2.5587e-22
-8.99954e-21
-2.81957e-19
-7.93788e-18
-1.98545e-16
-4.34567e-15
-8.16021e-14
-1.27987e-12
-1.61399e-11
-1.54367e-10
-1.01301e-09
-3.69772e-09
-3.69736e-09
-1.01375e-09
-1.70393e-10
3.95419e-23
4.2811e-23
4.70317e-23
4.95101e-23
-7.40571e-23
-6.09614e-21
-2.4262e-19
-8.19647e-18
-2.38454e-16
-5.94247e-15
-1.25116e-13
-2.17525e-12
-3.01401e-11
-3.14452e-10
-2.23525e-09
-8.73949e-09
-8.749e-09
-2.24994e-09
-3.48578e-10
8.73818e-23
8.74243e-23
8.74689e-23
1.36208e-22
1.92463e-21
5.90125e-20
1.70465e-18
4.41604e-17
1.01123e-15
2.01247e-14
3.40506e-13
4.75494e-12
5.25436e-11
4.31127e-10
2.36269e-09
7.05323e-09
7.02505e-09
2.32978e-09
4.72076e-10
-3.69747e-22
-4.19829e-22
-4.8428e-22
-3.97408e-22
5.68467e-21
2.17577e-19
6.83331e-18
1.92463e-16
4.81808e-15
1.05598e-13
1.98656e-12
3.12312e-11
3.94972e-10
3.79037e-09
2.4969e-08
9.15016e-08
9.14984e-08
2.49943e-08
4.1844e-09
-2.41274e-21
-2.55248e-21
-2.72269e-21
-2.83898e-21
2.59497e-22
1.47179e-19
5.77776e-18
1.92134e-16
5.52847e-15
1.36698e-13
2.86172e-12
4.95468e-11
6.84454e-10
7.126e-09
5.05868e-08
1.9765e-07
1.97847e-07
5.08945e-08
7.89241e-09
-1.26472e-21
-9.06583e-22
-3.9637e-22
-8.37226e-22
-3.82376e-20
-1.25217e-18
-3.62559e-17
-9.39525e-16
-2.15308e-14
-4.29118e-13
-7.27764e-12
-1.01982e-10
-1.13265e-09
-9.36183e-09
-5.1856e-08
-1.57109e-07
-1.56568e-07
-5.12326e-08
-1.02699e-08
3.24448e-20
3.54658e-20
3.93398e-20
4.01251e-20
-8.76496e-20
-4.60755e-18
-1.45097e-16
-4.06951e-15
-1.01479e-13
-2.21669e-12
-4.15834e-11
-6.52217e-10
-8.23321e-09
-7.89027e-08
-5.19311e-07
-1.9023e-06
-1.9022e-06
-5.19792e-07
-8.70943e-08
1.09865e-19
1.12939e-19
1.1599e-19
1.16268e-19
1.74149e-20
-4.02892e-18
-1.48221e-16
-4.68406e-15
-1.29738e-13
-3.11463e-12
-6.36906e-11
-1.08188e-09
-1.47125e-08
-1.51191e-07
-1.06182e-06
-4.11449e-06
-4.11775e-06
-1.06716e-06
-1.67252e-07
-1.60658e-19
-1.94971e-19
-2.41683e-19
-2.77286e-19
2.93398e-19
2.00834e-17
5.85369e-16
1.49812e-14
3.38226e-13
6.62444e-12
1.10019e-10
1.50208e-09
1.61289e-08
1.27324e-07
6.60314e-07
1.82205e-06
1.81295e-06
6.49614e-07
1.39643e-07
-1.99964e-18
-2.13389e-18
-2.30103e-18
-2.41283e-18
-1.54223e-19
8.22517e-17
2.62225e-15
7.29474e-14
1.80399e-12
3.9098e-11
7.28053e-10
1.134e-08
1.42215e-07
1.35457e-06
8.86495e-06
3.23171e-05
3.23129e-05
8.86981e-06
1.49484e-06
-3.25758e-18
-3.14529e-18
-2.95184e-18
-2.62609e-18
5.26893e-19
1.05487e-16
3.59435e-15
1.07724e-13
2.85792e-12
6.61885e-11
1.31285e-09
2.17248e-08
2.88813e-07
2.91005e-06
2.00935e-05
7.68064e-05
7.68473e-05
2.01679e-05
3.21553e-06
1.84166e-17
2.05067e-17
2.32472e-17
2.60654e-17
2.23114e-17
-1.87435e-16
-6.00332e-15
-1.4674e-13
-3.1086e-12
-5.60128e-11
-8.29111e-10
-9.52981e-09
-7.62756e-08
-3.07362e-07
7.41892e-07
1.20134e-05
1.21416e-05
9.03855e-07
-3.29672e-07
9.31496e-17
9.70734e-17
1.01646e-16
1.0514e-16
7.31602e-17
-1.12999e-15
-3.7746e-14
-1.03819e-12
-2.53459e-11
-5.42387e-10
-9.97412e-09
-1.5344e-07
-1.90074e-06
-1.78846e-05
-0.000115657
-0.000417103
-0.000416985
-0.000115641
-1.97318e-05
5.70707e-18
-1.1302e-17
-3.48339e-17
-6.3712e-17
-1.56257e-16
-2.35457e-15
-7.14334e-14
-2.05331e-12
-5.26095e-11
-1.18112e-09
-2.27801e-08
-3.67508e-07
-4.77418e-06
-4.71053e-05
-0.000319194
-0.00120113
-0.00120146
-0.000319968
-5.20068e-05
-1.18601e-15
-1.27862e-15
-1.3957e-15
-1.5198e-15
-1.62828e-15
-1.32342e-15
2.88751e-15
-1.30588e-13
-9.68622e-12
-3.52166e-10
-9.24618e-09
-1.86717e-07
-2.88949e-06
-3.28572e-05
-0.000250251
-0.00103193
-0.00103331
-0.000252266
-3.63237e-05
-3.14197e-15
-3.1586e-15
-3.15744e-15
-3.11931e-15
-2.68599e-15
9.6243e-15
3.72654e-13
1.00766e-11
2.40697e-10
5.03517e-09
9.04316e-08
1.35721e-06
1.63813e-05
0.000149977
0.000942678
0.00330801
0.00330596
0.000941174
0.000165441
6.71956e-15
7.81788e-15
9.24755e-15
1.08567e-14
1.35108e-14
4.7028e-14
1.02912e-12
2.83796e-11
7.07649e-10
1.54917e-08
2.91735e-07
4.60089e-06
5.84932e-05
0.000565457
0.00375927
0.0139154
0.0139159
0.00376417
0.000623999
5.51275e-14
5.79521e-14
6.13593e-14
6.48313e-14
6.90915e-14
1.03931e-13
1.14768e-12
3.1943e-11
8.399e-10
1.93573e-08
3.82722e-07
6.32165e-06
8.3991e-05
0.000846704
0.00585483
0.0224261
0.0224353
0.00587295
0.000934373
5.50701e-14
4.85751e-14
3.96866e-14
2.90721e-14
1.51323e-14
-4.87135e-14
-1.43283e-12
-3.4986e-11
-7.54609e-10
-1.39801e-08
-2.15972e-07
-2.66669e-06
-2.45806e-05
-0.000148548
-0.000411528
0.000391957
0.000413032
-0.000385769
-0.000164022
-5.15745e-13
-5.63896e-13
-6.23931e-13
-6.88336e-13
-7.63711e-13
-1.09882e-12
-9.15346e-12
-2.26116e-10
-5.47286e-09
-1.16699e-07
-2.14096e-06
-3.28941e-05
-0.000407407
-0.00383709
-0.0248656
-0.0899369
-0.0899158
-0.0248672
-0.00423396
-1.84983e-12
-1.88207e-12
-1.91441e-12
-1.9372e-12
-1.96229e-12
-2.495e-12
-1.91479e-11
-4.84694e-10
-1.20625e-08
-2.64512e-07
-4.99319e-06
-7.89847e-05
-0.00100781
-0.00978335
-0.0653445
-0.243011
-0.243024
-0.065433
-0.0107929
1.63234e-12
2.11707e-12
2.72898e-12
3.40716e-12
4.13427e-12
4.40546e-12
-1.19976e-11
-5.1174e-10
-1.34108e-08
-3.04399e-07
-5.93555e-06
-9.68598e-05
-0.0012734
-0.0127208
-0.0872895
-0.332355
-0.332445
-0.0874974
-0.0140283
2.44287e-11
2.58328e-11
2.75014e-11
2.91942e-11
3.08802e-11
3.28307e-11
4.23477e-11
2.182e-10
3.40229e-09
4.80386e-08
4.26206e-07
-7.44744e-07
-0.000103626
-0.00190222
-0.0184783
-0.087826
-0.0880087
-0.0187242
-0.00208509
3.47961e-11
3.21992e-11
2.88048e-11
2.47248e-11
1.99673e-11
1.68282e-11
8.51765e-11
2.09309e-09
5.03923e-08
1.06533e-06
1.93756e-05
0.000295173
0.00362572
0.0338755
0.217855
0.782708
0.782476
0.217809
0.0373849
-1.96191e-10
-2.17463e-10
-2.43007e-10
-2.7012e-10
-2.98345e-10
-3.21923e-10
-1.69405e-10
4.82864e-09
1.27859e-07
2.76957e-06
5.15149e-05
0.000803314
0.0101106
0.0968834
0.639323
2.35308
2.35289
0.639795
0.10687
-7.82171e-10
-7.95104e-10
-8.07786e-10
-8.15782e-10
-8.17491e-10
-8.0254e-10
-4.80309e-10
8.11443e-09
2.19768e-07
4.80379e-06
9.01716e-05
0.00141931
0.0180342
0.174477
1.16238
4.31554
4.31549
1.16358
0.192412
6.03256e-10
8.21019e-10
1.08302e-09
1.37123e-09
1.68597e-09
2.04071e-09
2.82787e-09
1.48725e-08
3.04238e-07
6.59489e-06
0.000124337
0.00196703
0.0251233
0.244329
1.63608
6.10244
6.10253
1.63797
0.269391
9.78378e-09
1.03556e-08
1.10017e-08
1.16431e-08
1.22665e-08
1.28781e-08
1.39229e-08
2.79752e-08
3.65189e-07
7.71713e-06
0.000145715
0.00231164
0.0296094
0.288786
1.93924
7.25173
7.25192
1.94158
0.318362
1.18485e-08
1.04328e-08
8.6858e-09
6.63174e-09
4.24206e-09
1.50759e-09
-1.11838e-09
9.5708e-09
3.60027e-07
8.10238e-06
0.000153694
0.0024418
0.0313167
0.305828
2.05627
7.69817
7.6984
2.05878
0.337121
-8.74666e-08
-9.68626e-08
-1.07584e-07
-1.18816e-07
-1.30475e-07
-1.42493e-07
-1.54328e-07
-1.52659e-07
1.8955e-07
7.93626e-06
0.000153792
0.00244669
0.0313891
0.306611
2.06203
7.72144
7.72166
2.06453
0.337974
-2.97258e-07
-2.98774e-07
-2.98959e-07
-2.96502e-07
-2.90934e-07
-2.81863e-07
-2.68435e-07
-2.37138e-07
1.36483e-07
7.85302e-06
0.000152418
0.00242401
0.0310924
0.303663
2.0419
7.645
7.64521
2.04437
0.334728
4.47668e-07
5.56356e-07
6.811e-07
8.16498e-07
9.62482e-07
1.119e-06
1.28634e-06
1.47723e-06
2.01456e-06
9.87543e-06
0.000154123
0.00241793
0.0309829
0.30254
2.03411
7.61512
7.61532
2.03657
0.333493
4.28387e-06
4.51218e-06
4.75057e-06
4.97673e-06
5.18605e-06
5.37478e-06
5.53969e-06
5.68811e-06
6.14214e-06
1.38813e-05
0.000158079
0.0024237
0.0310146
0.302823
2.03601
7.62227
7.62248
2.03848
0.333802
2.81139e-06
1.96137e-06
9.74227e-07
-1.37642e-07
-1.37719e-06
-2.74562e-06
-4.23992e-06
-5.89854e-06
-7.44973e-06
-1.95001e-06
0.000139837
0.00240447
0.0310157
0.303051
2.03775
7.62901
7.62922
2.04021
0.334039
-4.50658e-05
-4.91351e-05
-5.3438e-05
-5.77666e-05
-6.20946e-05
-6.64006e-05
-7.05423e-05
-7.55189e-05
-8.08232e-05
-7.92902e-05
5.83846e-05
0.00231959
0.0309239
0.302915
2.03736
7.62788
7.62808
2.03982
0.333907
-0.000119225
-0.000118043
-0.000116377
-0.000114004
-0.000110917
-0.000107112
-9.76787e-05
-8.26356e-05
-6.17304e-05
-2.80658e-05
0.000142534
0.00243486
0.0310516
0.302883
2.03615
7.62287
7.62311
2.0387
0.334
0.000244846
0.000273895
0.000304022
0.000334421
0.000365086
0.000396187
0.000623893
0.000852632
0.00108268
0.00132077
0.00149972
0.00379756
0.0323865
0.303868
2.0348
7.61393
7.61417
2.03735
0.334963
0.00166444
0.00169643
0.00173139
0.0017664
0.0018014
0.00183656
0.00205816
0.0022795
0.00250091
0.00272918
0.00290701
0.00520235
0.0337683
0.305002
2.03414
7.60691
7.60714
2.03666
0.33605
0.00306127
0.00308957
0.0031228
0.00315618
0.00318952
0.00322298
0.00343276
0.00364226
0.00385181
0.00406824
0.00424475
0.00654581
0.0352041
0.307304
2.04169
7.63019
7.63041
2.04423
0.338468
0.00438807
0.00441284
0.00444433
0.00447617
0.00450799
0.00453994
0.00473813
0.00493605
0.00513403
0.00533898
0.00551553
0.00784024
0.0368293
0.312168
2.0673
7.72168
7.72192
2.06995
0.343801
0.00565737
0.00567918
0.00570932
0.00574007
0.00577084
0.00580172
0.00598876
0.00617554
0.0063624
0.00655634
0.00673404
0.00909578
0.0386044
0.319175
2.10881
7.87579
7.8761
2.1117
0.351575
0.00688171
0.00690081
0.00692961
0.00695928
0.00698897
0.00701876
0.0071946
0.00737016
0.00754577
0.00772849
0.00790567
0.0102806
0.0400176
0.323192
2.13182
7.96619
7.9666
2.13491
0.355971
0.00804718
0.00806295
0.00808932
0.00811679
0.00814427
0.0081718
0.00833524
0.00849837
0.0086615
0.00883146
0.00900126
0.0112936
0.0400125
0.313718
2.0644
7.72305
7.72348
2.06726
0.345087
0.00909133
0.00910259
0.00912456
0.00914778
0.00917101
0.00919424
0.00934324
0.00949192
0.00964057
0.00979542
0.00994637
0.011989
0.0374694
0.27977
1.83007
6.85449
6.85475
1.83181
0.306486
0.0099127
0.00991813
0.00993331
0.00994965
0.00996586
0.0099819
0.0101134
0.0102448
0.0103763
0.0105129
0.0106323
0.0122469
0.0320972
0.219036
1.41118
5.28666
5.28647
1.41073
0.237547
0.0103711
0.010365
0.0103664
0.0103686
0.0103702
0.0103713
0.0104752
0.0105757
0.0106732
0.0107716
0.0108343
0.0119131
0.0248696
0.143575
0.890632
3.32662
3.3258
0.887341
0.151928
0.0101777
0.0101498
0.0101272
0.0101053
0.0100832
0.0100608
0.0100382
0.0100147
0.00999054
0.00996863
0.00999191
0.0106055
0.0174066
0.0746697
0.41823
1.54098
1.53956
0.412365
0.0739605
0.009096
0.00906187
0.00903044
0.00899973
0.00896902
0.00893823
0.00890736
0.0088764
0.00884551
0.00881685
0.00881871
0.0091434
0.0120552
0.030207
0.115296
0.39189
0.390096
0.107796
0.0237697
0.00781941
0.00778559
0.00775256
0.00772013
0.0076878
0.00765548
0.00762317
0.00759087
0.00755872
0.00752863
0.0075235
0.00774143
0.00918248
0.0123605
-0.00243949
-0.0552618
-0.0571955
-0.0105758
0.00373221
0.00651919
0.00648782
0.00645593
0.00642451
0.0063932
0.00636194
0.00633071
0.00629953
0.00626853
0.00623964
0.00623589
0.00645463
0.00785772
0.0104218
-0.00932487
-0.0796726
-0.0816182
-0.0175521
0.00164176
0.00527719
0.00524875
0.00521881
0.00518917
0.00515963
0.00513012
0.00510066
0.00507124
0.005042
0.00501496
0.00501462
0.00525942
0.00695766
0.0122386
0.00969771
-0.00435984
-0.00630301
0.00145467
0.00372403
0.00411002
0.00408429
0.00405624
0.00402831
0.00400046
0.00397265
0.00394489
0.00391717
0.00388964
0.00386435
0.00386638
0.00412274
0.00594029
0.012292
0.0164501
0.0245467
0.0226036
0.00818736
0.0038752
0.00301734
0.00299443
0.00296861
0.00294277
0.00291701
0.00289132
0.0028657
0.00284016
0.00281482
0.00279166
0.00279481
0.00304236
0.00478234
0.0107287
0.0133256
0.0164983
0.0146243
0.00533364
0.00257883
0.00202528
0.00200596
0.0019836
0.00196114
0.00193878
0.00191654
0.00189441
0.0018724
0.00185063
0.00183081
0.00183416
0.00205242
0.00357744
0.00868013
0.00976664
0.00853522
0.006881
0.00268684
0.00145147
0.00119158
0.00117691
0.0011596
0.00114218
0.0011249
0.00110776
0.00109077
0.00107394
0.00105734
0.0010423
0.00104504
0.0012129
0.00238908
0.00634903
0.00731039
0.00675808
0.00549016
0.00186404
0.000796272
0.000575961
0.000566504
0.000555193
0.000543818
0.000532579
0.00052149
0.000510551
0.000499764
0.00048918
0.000479618
0.000481199
0.000586247
0.0013266
0.00384357
0.00459993
0.00475856
0.00396577
0.00118192
0.000364459
0.000200462
0.000195695
0.000189942
0.000184174
0.000178513
0.000172966
0.000167532
0.000162213
0.00015703
0.000152353
0.000152804
0.000200748
0.000541383
0.00170281
0.00202979
0.00203114
0.00166702
0.000453232
9.92033e-05
2.92136e-05
2.76383e-05
2.57269e-05
2.38263e-05
2.19839e-05
2.02028e-05
1.84821e-05
1.68209e-05
1.52235e-05
1.37784e-05
1.36102e-05
2.51282e-05
0.000109106
0.000397103
0.000465483
0.000423482
0.000333748
7.39364e-05
-8.3253e-07
-1.51457e-05
-1.52497e-05
-1.53764e-05
-1.54911e-05
-1.55877e-05
-1.56662e-05
-1.57272e-05
-1.57713e-05
-1.58005e-05
-1.58332e-05
-1.60871e-05
-1.851e-05
-3.40969e-05
-8.54731e-05
-9.73704e-05
-8.76086e-05
-7.0924e-05
-2.63634e-05
-1.30495e-05
-1.01311e-05
-9.93516e-06
-9.69647e-06
-9.45372e-06
-9.21177e-06
-8.97116e-06
-8.73208e-06
-8.49476e-06
-8.2608e-06
-8.05312e-06
-8.15595e-06
-1.118e-05
-3.22727e-05
-0.000104108
-0.000123482
-0.000120621
-9.81707e-05
-2.60564e-05
-5.07511e-06
-9.51642e-07
-8.6948e-07
-7.69543e-07
-6.70224e-07
-5.7412e-07
-4.81433e-07
-3.92131e-07
-3.06174e-07
-2.23785e-07
-1.4929e-07
-1.38216e-07
-7.09912e-07
-4.93466e-06
-1.96529e-05
-2.41661e-05
-2.56682e-05
-2.11887e-05
-4.47681e-06
3.16398e-07
1.19843e-06
1.1904e-06
1.18043e-06
1.16963e-06
1.15806e-06
1.14576e-06
1.13279e-06
1.11918e-06
1.10515e-06
1.0934e-06
1.11714e-06
1.48042e-06
3.9437e-06
1.2313e-05
1.48412e-05
1.5428e-05
1.28184e-05
3.54295e-06
8.32706e-07
2.96123e-07
2.83422e-07
2.6793e-07
2.52391e-07
2.37182e-07
2.2234e-07
2.07869e-07
1.93771e-07
1.80112e-07
1.67938e-07
1.70459e-07
3.1053e-07
1.30987e-06
4.74912e-06
5.62415e-06
5.33622e-06
4.27587e-06
9.78729e-07
3.36347e-08
-1.43053e-07
-1.42857e-07
-1.42585e-07
-1.42197e-07
-1.41678e-07
-1.4103e-07
-1.40259e-07
-1.39372e-07
-1.38397e-07
-1.37692e-07
-1.41655e-07
-1.90557e-07
-5.17484e-07
-1.62272e-06
-1.91295e-06
-1.83824e-06
-1.49215e-06
-4.13424e-07
-9.89249e-08
-3.62924e-08
-3.46371e-08
-3.26175e-08
-3.05915e-08
-2.86092e-08
-2.66753e-08
-2.47902e-08
-2.29545e-08
-2.11771e-08
-1.96015e-08
-2.00466e-08
-3.9491e-08
-1.78129e-07
-6.57678e-07
-7.91401e-07
-7.93229e-07
-6.46639e-07
-1.47488e-07
-4.57319e-09
2.17818e-08
2.16094e-08
2.13949e-08
2.11651e-08
2.09228e-08
2.06687e-08
2.04034e-08
2.0128e-08
1.98474e-08
1.96289e-08
2.03112e-08
2.96316e-08
9.2733e-08
3.07876e-07
3.67575e-07
3.65343e-07
2.98749e-07
7.74574e-08
1.3376e-08
9.94406e-10
8.20629e-10
6.09276e-10
3.994e-10
1.96634e-10
1.43923e-12
-1.86246e-10
-3.665e-10
-5.38953e-10
-6.95947e-10
-7.37303e-10
2.90563e-10
8.12333e-09
3.57645e-08
4.31065e-08
4.2358e-08
3.40738e-08
6.2008e-09
-1.61072e-09
-2.93036e-09
-2.86942e-09
-2.79481e-09
-2.71883e-09
-2.64308e-09
-2.56776e-09
-2.49293e-09
-2.41867e-09
-2.34574e-09
-2.28538e-09
-2.37914e-09
-3.94409e-09
-1.4728e-08
-5.1783e-08
-6.19041e-08
-6.1192e-08
-4.98279e-08
-1.20928e-08
-1.2615e-09
7.64487e-10
7.65808e-10
7.67304e-10
7.68281e-10
7.68594e-10
7.68244e-10
7.67253e-10
7.65656e-10
7.63641e-10
7.63871e-10
7.99471e-10
1.17643e-09
3.68137e-09
1.22056e-08
1.45503e-08
1.43875e-08
1.17534e-08
3.06722e-09
5.53821e-10
6.82509e-11
6.11409e-11
5.24905e-11
4.38735e-11
3.55145e-11
2.74316e-11
1.96226e-11
1.2085e-11
4.84118e-12
-1.68534e-12
-1.9914e-12
5.61802e-11
4.86552e-10
1.99906e-09
2.40627e-09
2.38149e-09
1.92773e-09
3.87766e-10
-4.48942e-11
-1.1888e-10
-1.15983e-10
-1.12458e-10
-1.08902e-10
-1.05393e-10
-1.0194e-10
-9.85419e-11
-9.52015e-11
-9.19523e-11
-8.93317e-11
-9.41583e-11
-1.70215e-10
-6.94725e-10
-2.50415e-09
-2.99732e-09
-2.96564e-09
-2.4144e-09
-5.71696e-10
-4.56534e-11
5.05835e-11
4.98724e-11
4.90103e-11
4.81342e-11
4.72608e-11
4.63915e-11
4.55266e-11
4.46672e-11
4.38276e-11
4.32348e-11
4.57626e-11
7.82433e-11
2.99074e-10
1.05859e-09
1.26599e-09
1.25266e-09
1.02089e-09
2.47518e-10
2.62803e-11
-1.50332e-11
-1.49164e-11
-1.47767e-11
-1.4634e-11
-1.449e-11
-1.43448e-11
-1.41987e-11
-1.40518e-11
-1.39084e-11
-1.38378e-11
-1.47139e-11
-2.46922e-11
-9.18793e-11
-3.2256e-10
-3.8562e-10
-3.81587e-10
-3.11164e-10
-7.63281e-11
-9.08992e-12
2.63842e-12
2.6288e-12
2.61778e-12
2.60647e-12
2.59483e-12
2.58285e-12
2.57054e-12
2.55793e-12
2.54582e-12
2.54667e-12
2.71822e-12
4.53185e-12
1.66644e-11
5.82782e-11
6.9661e-11
6.89369e-11
5.62332e-11
1.38787e-11
1.7475e-12
)
;

boundaryField
{
    top
    {
        type            zeroGradient;
    }
    left
    {
        type            fixedValue;
        value           uniform 0;
    }
    bottom
    {
        type            zeroGradient;
    }
    right
    {
        type            zeroGradient;
    }
    frontAndBack
    {
        type            empty;
    }
}


// ************************************************************************* //
