/*--------------------------------*- C++ -*----------------------------------*\
| =========                 |                                                 |
| \\      /  F ield         | OpenFOAM: The Open Source CFD Toolbox           |
|  \\    /   O peration     | Version:  v1806                                 |
|   \\  /    A nd           | Web:      www.OpenFOAM.com                      |
|    \\/     M anipulation  |                                                 |
\*---------------------------------------------------------------------------*/
FoamFile
{
    version     2.0;
    format      ascii;
    class       volScalarField;
    location    "0.035";
    object      T;
}
// * * * * * * * * * * * * * * * * * * * * * * * * * * * * * * * * * * * * * //

dimensions      [0 0 0 1 0 0 0];


internalField   nonuniform List<scalar> 
1881
(
1.98372e-124
7.65728e-123
2.83179e-121
9.75107e-120
3.10818e-118
9.10856e-117
2.43418e-115
5.87433e-114
1.26481e-112
2.39307e-111
3.90115e-110
5.33582e-109
5.89687e-108
4.97168e-107
2.89982e-106
9.56897e-106
9.51998e-106
2.83776e-106
5.32658e-107
2.81426e-122
1.08896e-120
4.03677e-119
1.39335e-117
4.45198e-116
1.30779e-114
3.50334e-113
8.47481e-112
1.82911e-110
3.46908e-109
5.66884e-108
7.7722e-107
8.6099e-106
7.27611e-105
4.25355e-104
1.40642e-103
1.39945e-103
4.1654e-104
7.80355e-105
3.96131e-120
1.53652e-118
5.70939e-117
1.97537e-115
6.32666e-114
1.86292e-112
5.00237e-111
1.213e-109
2.62429e-108
4.98914e-107
8.17229e-106
1.12313e-104
1.24713e-103
1.0564e-102
6.1896e-102
2.05065e-101
2.04081e-101
6.06547e-102
1.13413e-102
5.49279e-118
2.13574e-116
7.95482e-115
2.75882e-113
8.85697e-112
2.61422e-110
7.03662e-109
1.71037e-107
3.70921e-106
7.06867e-105
1.16064e-103
1.5989e-102
1.77966e-101
1.51103e-100
8.87336e-100
2.94568e-99
2.932e-99
8.70128e-100
1.62383e-100
7.50059e-116
2.92352e-114
1.0915e-112
3.79449e-111
1.22111e-109
3.61286e-108
9.74799e-107
2.37512e-105
5.16322e-104
9.86328e-103
1.6234e-101
2.24176e-100
2.50116e-99
2.12861e-98
1.25284e-97
4.16741e-97
4.14869e-97
1.22937e-97
2.28977e-98
1.00835e-113
3.93986e-112
1.47447e-110
5.13811e-109
1.65747e-107
4.9157e-106
1.32952e-104
3.2472e-103
7.07607e-102
1.355e-100
2.23558e-99
3.09455e-98
3.46088e-97
2.95233e-96
1.74162e-95
5.80492e-95
5.77973e-95
1.71011e-95
3.17894e-96
1.33412e-111
5.2255e-110
1.9603e-108
6.84751e-107
2.2142e-105
6.58269e-104
1.78467e-102
4.36941e-101
9.54453e-100
1.83211e-98
3.03006e-97
4.20442e-96
4.7134e-95
4.03031e-94
2.38297e-93
7.9586e-93
7.92525e-93
2.34138e-93
4.34381e-94
1.73663e-109
6.81872e-108
2.56412e-106
8.97829e-105
2.91021e-103
8.67278e-102
2.35702e-100
5.78467e-99
1.26667e-97
2.43732e-96
4.04076e-95
5.62039e-94
6.31593e-93
5.41341e-92
3.20806e-91
1.07359e-90
1.06925e-90
3.1541e-91
5.83999e-92
2.22327e-107
8.75092e-106
3.29863e-104
1.15781e-102
3.76197e-101
1.12383e-99
3.06166e-98
7.53227e-97
1.65335e-95
3.1891e-94
5.29997e-93
7.38973e-92
8.32424e-91
7.15169e-90
4.24793e-89
1.42447e-88
1.41892e-88
4.17912e-89
7.7224e-90
2.79828e-105
1.10413e-103
4.17205e-102
1.46791e-100
4.78113e-99
1.43175e-97
3.91003e-96
9.64285e-95
2.12178e-93
4.10264e-92
6.83477e-91
9.55286e-90
1.07869e-88
9.28957e-88
5.53047e-87
1.85833e-86
1.85135e-86
5.44429e-87
1.004e-87
3.46132e-103
1.36913e-101
5.18585e-100
1.82904e-98
5.97183e-97
1.79267e-95
4.90761e-94
1.21326e-92
2.67614e-91
5.18718e-90
8.66267e-89
1.21372e-87
1.37383e-86
1.18595e-85
7.07677e-85
2.38276e-84
2.37415e-84
6.97078e-85
1.28291e-85
4.20602e-101
1.66781e-99
6.33252e-98
2.23889e-96
7.32781e-95
2.20508e-93
6.05138e-92
1.49968e-90
3.31602e-89
6.44321e-88
1.07866e-86
1.51499e-85
1.71901e-84
1.48748e-83
8.89659e-83
3.00164e-82
2.99121e-82
8.76868e-83
1.61051e-83
5.01883e-99
1.99505e-97
7.59345e-96
2.69124e-94
8.82983e-93
2.66357e-91
7.32751e-90
1.82039e-88
4.03504e-87
7.85957e-86
1.319e-84
1.85709e-83
2.11231e-82
1.8322e-81
1.09837e-80
3.71343e-80
3.70104e-80
1.08323e-80
1.98545e-81
5.87828e-97
2.34251e-95
8.93763e-94
3.17538e-92
1.04438e-90
3.15815e-89
8.70942e-88
2.16903e-86
4.81965e-85
9.41096e-84
1.58325e-82
2.23461e-81
2.54791e-80
2.21536e-79
1.33116e-78
4.50971e-78
4.49526e-78
1.31358e-78
2.40269e-79
6.75491e-95
2.69856e-93
1.03213e-91
3.67594e-90
1.21198e-88
3.67397e-87
1.01569e-85
2.53574e-84
5.64841e-83
1.10564e-81
1.86466e-80
2.63827e-79
3.01553e-78
2.62827e-77
1.58296e-76
5.37382e-76
5.35731e-76
1.56296e-76
2.85289e-77
7.61217e-93
3.04863e-91
1.16888e-89
4.17319e-88
1.37931e-86
4.19151e-85
1.16163e-83
2.90726e-82
6.49198e-81
1.27391e-79
2.15376e-78
3.05483e-77
3.50022e-76
3.0581e-75
1.84614e-74
6.28025e-74
6.26177e-74
1.82386e-74
3.32216e-75
8.40824e-91
3.37589e-89
1.29753e-87
4.64392e-86
1.53867e-84
4.68735e-83
1.30225e-81
3.26729e-80
7.31403e-79
1.43878e-77
2.43853e-76
3.4673e-75
3.9826e-74
3.48799e-73
2.1106e-72
7.1948e-72
7.17455e-72
2.0863e-72
3.79219e-73
9.09889e-89
3.66236e-87
1.4111e-85
5.06285e-84
1.68162e-82
5.13551e-81
1.4303e-79
3.59747e-78
8.07318e-77
1.59207e-75
2.70504e-74
3.85578e-73
4.43973e-72
3.89781e-71
2.36413e-70
8.07583e-70
8.0541e-70
2.3382e-70
4.24106e-71
9.64109e-87
3.89037e-85
1.50265e-83
5.40465e-82
1.7996e-80
5.50944e-79
1.53826e-77
3.87864e-76
8.72585e-75
1.72507e-73
2.93832e-72
4.19872e-71
4.84655e-70
4.26536e-69
2.59315e-68
8.87668e-68
8.85388e-68
2.56611e-68
4.64451e-69
9.99713e-85
4.04421e-83
1.56594e-81
5.64624e-80
1.88471e-78
5.78437e-77
1.61905e-75
4.09253e-74
9.23005e-73
1.82931e-71
3.12366e-70
4.47468e-69
5.1779e-68
4.56811e-67
2.78378e-66
9.54917e-66
9.5258e-66
2.75621e-66
4.97788e-67
1.01387e-82
4.11184e-81
1.59607e-79
5.76919e-78
1.93055e-76
5.93983e-75
1.66672e-73
4.22356e-72
9.54944e-71
1.89735e-69
3.24796e-68
4.66437e-67
5.41081e-66
4.7853e-65
2.92304e-64
1.0048e-63
1.00245e-63
2.89561e-64
5.21834e-65
1.00502e-80
4.08629e-79
1.59009e-77
5.7619e-76
1.93292e-74
5.96201e-73
1.67713e-71
4.26061e-70
9.6574e-69
1.92363e-67
3.3012e-66
4.75271e-65
5.52702e-64
4.9001e-63
3.00028e-62
1.03352e-61
1.03123e-61
2.97364e-62
5.34731e-63
9.7313e-79
3.9667e-77
1.5474e-75
5.62122e-74
1.89045e-72
5.84561e-71
1.64852e-69
4.19845e-68
9.54047e-67
1.90512e-65
3.27768e-64
4.73069e-63
5.51516e-62
4.90164e-61
3.00837e-60
1.03849e-59
1.03631e-59
2.98316e-60
5.35268e-61
9.19763e-77
3.75871e-75
1.46993e-73
5.35316e-72
1.80481e-70
5.59485e-69
1.58177e-67
4.03862e-66
9.20044e-65
1.84186e-63
3.17684e-62
4.5967e-61
5.37237e-60
4.78653e-59
2.94475e-58
1.01868e-57
1.01665e-57
2.9215e-58
5.23049e-59
8.47959e-75
3.47413e-73
1.36204e-71
4.9727e-70
1.68076e-68
5.2234e-67
1.48048e-65
3.78957e-64
8.65492e-63
1.73704e-61
3.00362e-60
4.35704e-59
5.10505e-58
4.55963e-57
2.81188e-56
9.74787e-56
9.72948e-56
2.79102e-56
4.98579e-57
7.61965e-73
3.1298e-71
1.23013e-69
4.50239e-68
1.52563e-66
4.75329e-65
1.35065e-63
3.46599e-62
7.93598e-61
1.59679e-59
2.76811e-58
4.02558e-57
4.72856e-56
4.23386e-55
2.61725e-54
9.0925e-54
9.0763e-54
2.59906e-54
4.6325e-55
6.66816e-71
2.746e-69
1.082e-67
3.97021e-66
1.3487e-64
4.21269e-63
1.20007e-61
3.08741e-60
7.08714e-59
1.42963e-57
2.48463e-56
3.62248e-55
4.26581e-54
3.82904e-53
2.37271e-52
8.26055e-52
8.24668e-52
2.35729e-52
4.19213e-53
5.67826e-69
2.34437e-67
9.26077e-66
3.40667e-64
1.1602e-62
3.63309e-61
1.03759e-59
2.67621e-58
6.15889e-57
1.24555e-55
2.17023e-54
3.17215e-53
3.74496e-52
3.36991e-51
2.09325e-50
7.30323e-50
7.2917e-50
2.08058e-50
3.69165e-51
4.70076e-67
1.9458e-65
7.70576e-64
2.84183e-62
9.70291e-61
3.04614e-59
8.72183e-58
2.25531e-56
5.20353e-55
1.05503e-53
1.84298e-52
2.70069e-51
3.19645e-50
2.88355e-49
1.79548e-48
6.27779e-48
6.26848e-48
1.78539e-48
3.16065e-49
3.77958e-65
1.56853e-63
6.22748e-62
2.30249e-60
7.88144e-59
2.48062e-57
7.12077e-56
1.84602e-54
4.27012e-53
8.67999e-52
1.52015e-50
2.23332e-49
2.65001e-48
2.3966e-47
1.49589e-46
5.24159e-46
5.23432e-46
1.48812e-46
2.62835e-47
2.94845e-63
1.22678e-61
4.88302e-60
1.81e-58
6.21148e-57
1.96002e-55
5.64076e-54
1.46609e-52
3.39999e-51
6.92903e-50
1.21662e-48
1.79197e-47
2.13174e-46
1.93274e-45
1.20931e-44
4.24656e-44
4.24105e-44
1.20352e-44
2.12077e-45
2.22915e-61
9.2991e-60
3.7108e-58
1.37901e-56
4.74452e-55
1.50096e-53
4.33073e-52
1.1285e-50
2.62383e-49
5.36102e-48
9.43727e-47
1.3936e-45
1.66208e-44
1.51073e-43
9.47564e-43
3.33464e-42
3.33061e-42
9.43407e-43
1.65854e-43
1.63143e-59
6.8234e-58
2.72983e-56
1.01706e-54
3.50819e-53
1.11269e-51
3.21873e-50
8.40898e-49
1.96019e-47
4.01543e-46
7.08682e-45
1.04921e-43
1.25454e-42
1.14319e-41
7.18793e-41
2.53506e-40
2.53222e-40
7.15919e-41
1.25565e-41
1.15434e-57
4.84058e-56
1.94153e-54
7.25214e-53
2.50796e-51
7.97501e-50
2.31292e-48
6.05816e-47
1.41586e-45
2.90788e-44
5.1454e-43
7.63748e-42
9.15567e-41
8.3642e-40
5.27199e-39
1.86339e-38
1.86146e-38
5.25288e-39
9.1913e-40
7.88571e-56
3.31543e-54
1.33321e-52
4.99274e-51
1.73106e-49
5.51879e-48
1.60471e-46
4.21406e-45
9.87428e-44
2.03324e-42
3.6071e-41
5.36801e-40
6.45166e-39
5.90894e-38
3.7336e-37
1.32254e-36
1.32127e-36
3.72142e-37
6.49612e-38
5.19343e-54
2.18923e-52
8.82609e-51
3.3138e-49
1.15192e-47
3.68194e-46
1.07338e-44
2.8261e-43
6.63927e-42
1.37067e-40
2.43799e-39
3.6376e-38
4.38322e-37
4.02475e-36
2.54934e-35
9.05022e-35
9.04223e-35
2.54192e-35
4.42654e-36
3.29218e-52
1.39143e-50
5.62417e-49
2.11709e-47
7.37833e-46
2.3645e-44
6.91109e-43
1.82435e-41
4.29709e-40
8.89448e-39
1.58617e-37
2.37281e-36
2.86659e-35
2.63889e-34
1.67565e-33
5.9617e-33
5.95688e-33
1.67134e-33
2.90348e-34
2.00531e-50
8.49774e-49
3.44367e-47
1.29965e-45
4.54123e-44
1.4591e-42
4.27586e-41
1.13167e-39
2.67251e-38
5.54627e-37
9.91667e-36
1.48734e-34
1.80153e-33
1.66268e-32
1.0584e-31
3.77392e-31
3.77114e-31
1.05602e-31
1.83007e-32
1.17148e-48
4.97739e-47
2.0223e-45
7.65205e-44
2.68074e-42
8.6357e-41
2.53729e-39
6.73291e-38
1.59419e-36
3.31711e-35
5.94653e-34
8.9422e-33
1.08594e-31
1.00482e-30
6.41222e-30
2.29146e-29
2.28993e-29
6.3998e-30
1.10637e-30
6.5501e-47
2.79039e-45
1.13668e-43
4.31221e-42
1.51464e-40
4.89201e-39
1.44111e-37
3.83415e-36
9.10222e-35
1.89893e-33
3.41313e-32
5.14603e-31
6.26563e-30
5.81256e-29
3.71853e-28
1.33179e-27
1.33099e-27
3.71244e-28
6.40205e-29
3.49742e-45
1.49389e-43
6.10126e-42
2.32069e-40
8.17263e-39
2.64654e-37
7.81679e-36
2.08517e-34
4.96322e-33
1.03817e-31
1.87093e-30
2.82825e-29
3.4526e-28
3.21123e-27
2.05949e-26
7.39252e-26
7.38852e-26
2.05671e-26
3.53796e-27
1.77893e-43
7.61872e-42
3.11974e-40
1.18974e-38
4.20082e-37
1.36393e-35
4.03911e-34
1.0803e-32
2.57817e-31
5.40709e-30
9.77009e-29
1.48083e-27
1.81247e-26
1.69014e-25
1.08668e-24
3.90931e-24
3.90743e-24
1.0855e-24
1.86261e-25
8.59577e-42
3.69119e-40
1.51544e-38
5.79442e-37
2.05133e-35
6.67784e-34
1.98278e-32
5.31718e-31
1.27233e-29
2.67547e-28
4.84714e-27
7.36613e-26
9.03958e-25
8.45139e-24
5.44761e-23
1.96413e-22
1.96329e-22
5.44312e-23
9.31615e-24
3.93368e-40
1.69372e-38
6.97192e-37
2.67279e-35
9.48713e-34
3.09658e-32
9.21871e-31
2.47872e-29
5.94697e-28
1.25387e-26
2.27766e-25
3.47051e-24
4.27021e-23
4.00286e-22
2.58689e-21
9.34719e-21
9.34372e-21
2.58539e-21
4.4134e-22
1.69908e-38
7.33529e-37
3.02741e-35
1.16367e-33
4.14137e-32
1.35532e-30
4.04558e-29
1.09066e-27
2.6237e-26
5.54659e-25
1.01023e-23
1.5434e-22
1.90412e-21
1.78979e-20
1.16013e-19
4.19948e-19
4.19813e-19
1.15972e-19
1.97371e-20
6.89997e-37
2.98688e-35
1.23599e-33
4.76343e-32
1.69975e-30
5.57743e-29
1.66927e-27
4.51226e-26
1.08837e-24
2.30699e-23
4.21307e-22
6.45394e-21
7.98441e-20
7.52947e-19
4.90627e-18
1.77554e-17
1.77505e-17
4.90556e-18
8.30384e-19
2.62296e-35
1.13849e-33
4.72362e-32
1.82528e-30
6.53052e-29
2.14858e-27
6.44765e-26
1.74754e-24
4.22638e-23
8.98259e-22
1.64484e-20
2.5267e-19
3.13606e-18
2.97563e-17
1.97802e-16
7.06429e-16
7.06266e-16
1.97806e-16
3.28044e-17
9.28665e-34
4.04174e-32
1.68137e-30
6.51432e-29
2.33691e-27
7.70909e-26
2.3196e-24
6.30376e-23
1.52864e-21
3.25768e-20
5.98174e-19
9.21766e-18
1.15062e-16
1.11727e-15
8.35249e-15
2.71266e-14
2.71216e-14
8.35261e-15
1.22819e-15
3.04448e-32
1.3286e-30
5.54168e-29
2.1528e-27
7.74342e-26
2.56126e-24
7.72726e-23
2.10561e-21
5.1198e-20
1.09407e-18
2.01496e-17
3.12004e-16
3.9678e-15
4.351e-14
5.75951e-13
1.22205e-12
1.2219e-12
5.75707e-13
4.70584e-14
9.17875e-31
4.01644e-29
1.67974e-27
6.54275e-26
2.35966e-24
7.82587e-23
2.36739e-21
6.4683e-20
1.57706e-18
3.37979e-17
6.24953e-16
9.79976e-15
1.35645e-13
2.53424e-12
9.91397e-11
1.20531e-10
1.20526e-10
9.90767e-11
2.60007e-12
2.52432e-29
1.10759e-27
4.64448e-26
1.8139e-24
6.55943e-23
2.18129e-21
6.61633e-20
1.81265e-18
4.43185e-17
9.53004e-16
1.77602e-14
2.91678e-13
5.73034e-12
3.10423e-10
2.4637e-08
2.54774e-08
2.54772e-08
2.46267e-08
3.0562e-10
6.2711e-28
2.75903e-26
1.16004e-24
4.54266e-23
1.64712e-21
5.49211e-20
1.67038e-18
4.58883e-17
1.12532e-15
2.43164e-14
4.62574e-13
8.93515e-12
3.94302e-10
4.93585e-08
5.7469e-06
5.80907e-06
5.80906e-06
5.74598e-06
4.88137e-08
1.39043e-26
6.13399e-25
2.58593e-23
1.01535e-21
3.69145e-20
1.23418e-18
3.76386e-17
1.0369e-15
2.55149e-14
5.55778e-13
1.10987e-11
3.05028e-10
2.98068e-08
5.73956e-06
0.00102966
0.00103569
0.00103569
0.00102966
5.76669e-06
2.71007e-25
1.19882e-23
5.06744e-22
1.99504e-20
7.2727e-19
2.43808e-17
7.45561e-16
2.05982e-14
5.08714e-13
1.11813e-11
2.32688e-10
6.93427e-09
4.84241e-07
4.34677e-05
0.00300347
0.00305307
0.00305307
0.00300347
4.39482e-05
4.55312e-24
2.01958e-22
8.5596e-21
3.37891e-19
1.23505e-17
4.15151e-16
1.27297e-14
3.52653e-13
8.7314e-12
1.91628e-10
3.80221e-09
8.01048e-08
2.6232e-06
0.000124216
0.00506405
0.00530163
0.00530163
0.00506412
0.000126833
6.42185e-23
2.85619e-21
1.21376e-19
4.80413e-18
1.76069e-16
5.93425e-15
1.82446e-13
5.0672e-12
1.25674e-10
2.74767e-09
5.24647e-08
8.90791e-07
1.51405e-05
0.000319894
0.0075793
0.00958845
0.00958847
0.00758013
0.000335008
7.325e-22
3.26664e-20
1.39185e-18
5.52361e-17
2.02975e-15
6.85926e-14
2.11442e-12
5.8875e-11
1.46324e-09
3.19882e-08
6.04412e-07
9.68967e-06
0.000130597
0.00152473
0.0166088
0.0382486
0.038249
0.0166182
0.00165518
6.38498e-21
2.85495e-19
1.2196e-17
4.85261e-16
1.78783e-14
6.0575e-13
1.87213e-11
5.22626e-10
1.30202e-08
2.85139e-07
5.38408e-06
8.54707e-05
0.00110322
0.0110759
0.0813525
0.274972
0.274977
0.0814376
0.0121787
3.86741e-20
1.73362e-18
7.42417e-17
2.96132e-15
1.09375e-13
3.71507e-12
1.15105e-10
3.22126e-09
8.04472e-08
1.76577e-06
3.33994e-05
0.000530194
0.00680552
0.0667859
0.456058
1.67156
1.6716
0.45659
0.0735909
1.34874e-19
6.05877e-18
2.60009e-16
1.03929e-14
3.84665e-13
1.30933e-11
4.06532e-10
1.14011e-08
2.85329e-07
6.27578e-06
0.000118937
0.00189104
0.0242873
0.23781
1.60775
5.98312
5.98324
1.60964
0.262097
1.67116e-19
7.50509e-18
3.21988e-16
1.28667e-14
4.76096e-13
1.62009e-11
5.02879e-10
1.40992e-08
3.52758e-07
7.75686e-06
0.00014697
0.0023362
0.0299964
0.29357
1.9824
7.37971
7.37985
1.98474
0.323566
1.72751e-19
7.75727e-18
3.3277e-16
1.32961e-14
4.91929e-13
1.67379e-11
5.19495e-10
1.45638e-08
3.64354e-07
8.01146e-06
0.000151791
0.0024129
0.0309826
0.303221
2.04705
7.61642
7.61656
2.04946
0.334204
1.73418e-19
7.78708e-18
3.34044e-16
1.33468e-14
4.93802e-13
1.68017e-11
5.21481e-10
1.46199e-08
3.65775e-07
8.04334e-06
0.000152412
0.00242311
0.0311183
0.304576
2.05593
7.64506
7.6452
2.05835
0.335695
1.73484e-19
7.7901e-18
3.34178e-16
1.33525e-14
4.94027e-13
1.681e-11
5.21768e-10
1.4629e-08
3.66038e-07
8.05008e-06
0.000152561
0.00242585
0.0311577
0.304975
2.05825
7.64933
7.64948
2.06068
0.336133
1.73508e-19
7.79139e-18
3.34246e-16
1.33558e-14
4.94177e-13
1.68162e-11
5.22007e-10
1.46372e-08
3.66287e-07
8.05663e-06
0.000152707
0.00242847
0.0311937
0.305316
2.06003
7.65152
7.65166
2.06245
0.33651
1.73561e-19
7.79419e-18
3.34386e-16
1.33623e-14
4.94458e-13
1.68274e-11
5.22406e-10
1.465e-08
3.66651e-07
8.06557e-06
0.000152891
0.00243156
0.0312331
0.305662
2.0617
7.6535
7.65364
2.06413
0.336895
1.73693e-19
7.80075e-18
3.34695e-16
1.33758e-14
4.95004e-13
1.68476e-11
5.23083e-10
1.46703e-08
3.67189e-07
8.07787e-06
0.000153128
0.00243526
0.0312771
0.306022
2.06334
7.65545
7.65559
2.06577
0.3373
1.73993e-19
7.81475e-18
3.35318e-16
1.34016e-14
4.95986e-13
1.68818e-11
5.24164e-10
1.47009e-08
3.6795e-07
8.09424e-06
0.000153424
0.00243959
0.0313255
0.306395
2.06494
7.65738
7.65752
2.06738
0.337721
1.74544e-19
7.83939e-18
3.36368e-16
1.34431e-14
4.97495e-13
1.6932e-11
5.25673e-10
1.47414e-08
3.6891e-07
8.11386e-06
0.000153761
0.00244427
0.0313751
0.306758
2.06643
7.65917
7.65932
2.06887
0.338133
1.75179e-19
7.86696e-18
3.37506e-16
1.34866e-14
4.99029e-13
1.69813e-11
5.27106e-10
1.47786e-08
3.6976e-07
8.13059e-06
0.000154038
0.00244797
0.0314128
0.307024
2.06749
7.66045
7.6606
2.06993
0.338437
1.75369e-19
7.87513e-18
3.37841e-16
1.34993e-14
4.99473e-13
1.69955e-11
5.27514e-10
1.47892e-08
3.69998e-07
8.13523e-06
0.000154114
0.00244897
0.031423
0.307095
2.06777
7.66079
7.66094
2.07021
0.338518
1.754e-19
7.87647e-18
3.37896e-16
1.35014e-14
4.99545e-13
1.69977e-11
5.2758e-10
1.47908e-08
3.70036e-07
8.13597e-06
0.000154126
0.00244913
0.0314245
0.307106
2.0678
7.66083
7.66098
2.07025
0.33853
1.75404e-19
7.87662e-18
3.37902e-16
1.35016e-14
4.99553e-13
1.6998e-11
5.27587e-10
1.4791e-08
3.7004e-07
8.13605e-06
0.000154127
0.00244915
0.0314246
0.307096
2.06639
7.65941
7.65956
2.06883
0.338521
1.75404e-19
7.87664e-18
3.37903e-16
1.35017e-14
4.99554e-13
1.6998e-11
5.27588e-10
1.4791e-08
3.7004e-07
8.13604e-06
0.000154127
0.00244914
0.0314241
0.307052
2.06442
7.6574
7.65754
2.06687
0.338476
1.75408e-19
7.87677e-18
3.37906e-16
1.35017e-14
4.99554e-13
1.6998e-11
5.27584e-10
1.47909e-08
3.70035e-07
8.13592e-06
0.000154124
0.00244907
0.0314217
0.306965
2.06237
7.65515
7.6553
2.06482
0.338387
1.75464e-19
7.87859e-18
3.37957e-16
1.35028e-14
4.99561e-13
1.69972e-11
5.27531e-10
1.47887e-08
3.69966e-07
8.13411e-06
0.000154085
0.00244834
0.0314094
0.306765
2.05986
7.65087
7.65101
2.06231
0.338172
1.76097e-19
7.89924e-18
3.38542e-16
1.35151e-14
4.99641e-13
1.69884e-11
5.26938e-10
1.47641e-08
3.69179e-07
8.11356e-06
0.000153643
0.0024406
0.0313008
0.305583
2.05087
7.62224
7.62238
2.05328
0.336847
1.81507e-19
8.07669e-18
3.43597e-16
1.36226e-14
5.00414e-13
1.69155e-11
5.21903e-10
1.45539e-08
3.62407e-07
7.93618e-06
0.000149833
0.00237426
0.0303915
0.29627
1.98643
7.38582
7.3859
1.98853
0.326328
2.12743e-19
9.10608e-18
3.73109e-16
1.42583e-14
5.05391e-13
1.65078e-11
4.93037e-10
1.33383e-08
3.2305e-07
6.90132e-06
0.000127536
0.00198547
0.0250671
0.242005
1.6135
5.99099
5.99073
1.61376
0.264971
3.0673e-19
1.22168e-17
4.62814e-16
1.62123e-14
5.21796e-13
1.53184e-11
4.06767e-10
9.67602e-09
2.03888e-07
3.75598e-06
5.95498e-05
0.000796729
0.00875191
0.0754564
0.467274
1.68489
1.68357
0.461887
0.0766497
3.37939e-19
1.32456e-17
4.92316e-16
1.6848e-14
5.26784e-13
1.49112e-11
3.77914e-10
8.46052e-09
1.64522e-07
2.72055e-06
3.72334e-05
0.000407475
0.00342065
0.0211414
0.0943895
0.290074
0.288407
0.0871724
0.0152363
3.43338e-19
1.34227e-17
4.97364e-16
1.69554e-14
5.27551e-13
1.4838e-11
3.72857e-10
8.24916e-09
1.57703e-07
2.54156e-06
3.33776e-05
0.000340173
0.00249753
0.01173
0.0300482
0.0536632
0.0519383
0.0225206
0.00460374
3.43966e-19
1.34432e-17
4.97938e-16
1.69671e-14
5.27602e-13
1.48277e-11
3.72199e-10
8.22196e-09
1.56822e-07
2.51812e-06
3.28626e-05
0.000330964
0.00236825
0.0103982
0.0212057
0.0250578
0.023326
0.0136409
0.0031088
3.44013e-19
1.34445e-17
4.97961e-16
1.69667e-14
5.27536e-13
1.48237e-11
3.72012e-10
8.21485e-09
1.56592e-07
2.51178e-06
3.2716e-05
0.000328215
0.00232857
0.00999778
0.0188875
0.0207905
0.0190581
0.0113176
0.00266574
3.43985e-19
1.34429e-17
4.97881e-16
1.69629e-14
5.27364e-13
1.48166e-11
3.71744e-10
8.20578e-09
1.56321e-07
2.50474e-06
3.25621e-05
0.000325485
0.00229159
0.00965304
0.0171182
0.0186066
0.016874
0.00954554
0.00228402
3.43805e-19
1.34352e-17
4.97553e-16
1.69498e-14
5.26871e-13
1.47992e-11
3.71182e-10
8.18912e-09
1.55878e-07
2.49443e-06
3.2358e-05
0.000322185
0.00225063
0.00930143
0.0154475
0.0166237
0.0148914
0.00787391
0.00189433
3.42347e-19
1.3377e-17
4.9534e-16
1.68716e-14
5.2432e-13
1.47228e-11
3.69096e-10
8.13772e-09
1.54748e-07
2.47265e-06
3.19983e-05
0.000317277
0.00219841
0.00890999
0.0137794
0.0146401
0.0129137
0.00622858
0.00148448
3.30941e-19
1.29308e-17
4.78779e-16
1.63053e-14
5.06613e-13
1.42211e-11
3.56354e-10
7.85151e-09
1.49157e-07
2.37971e-06
3.07216e-05
0.000303372
0.00208549
0.00829202
0.0118896
0.0124296
0.0107564
0.00456801
0.00105115
2.66833e-19
1.04274e-17
3.86124e-16
1.31504e-14
4.08581e-13
1.1468e-11
2.87298e-10
6.32739e-09
1.20121e-07
1.91434e-06
2.46686e-05
0.000242818
0.00165869
0.00649193
0.0086953
0.00893772
0.00758156
0.00275756
0.00059127
7.60941e-20
2.96758e-18
1.09668e-16
3.72738e-15
1.15569e-13
3.23694e-12
8.09178e-11
1.77819e-09
3.36809e-08
5.35491e-07
6.88305e-06
6.75618e-05
0.00045995
0.00179091
0.00236219
0.00241814
0.00204072
0.000712012
0.000149381
1.24832e-20
4.85673e-19
1.79061e-17
6.07152e-16
1.878e-14
5.24733e-13
1.30853e-11
2.86841e-10
5.41945e-09
8.59431e-08
1.10179e-06
1.07853e-05
7.32103e-05
0.000284066
0.00037223
0.000380362
0.000320212
0.000109695
2.27943e-05
1.42246e-21
5.52058e-20
2.03041e-18
6.86771e-17
2.11901e-15
5.90595e-14
1.46906e-12
3.2121e-11
6.05317e-10
9.57428e-09
1.22418e-07
1.19512e-06
8.08997e-06
3.12976e-05
4.08564e-05
4.17042e-05
3.50541e-05
1.18826e-05
2.45624e-06
1.23836e-22
4.79405e-21
1.75886e-19
5.93447e-18
1.82648e-16
5.07779e-15
1.25985e-13
2.74759e-12
5.16442e-11
8.14721e-10
1.03897e-08
1.01161e-07
6.82935e-07
2.6349e-06
3.43076e-06
3.49932e-06
2.93783e-06
9.8884e-07
2.03738e-07
8.71679e-24
3.36608e-22
1.23192e-20
4.14621e-19
1.2729e-17
3.52985e-16
8.73562e-15
1.90025e-13
3.56252e-12
5.60548e-11
7.12964e-10
6.92359e-09
4.66178e-08
1.79398e-07
2.33127e-07
2.37647e-07
1.99319e-07
6.6738e-08
1.37205e-08
5.15003e-25
1.98376e-23
7.24231e-22
2.43147e-20
7.44606e-19
2.05964e-17
5.08425e-16
1.10315e-14
2.06281e-13
3.23734e-12
4.10686e-11
3.97777e-10
2.67135e-09
1.02545e-08
1.33046e-08
1.3556e-08
1.13598e-08
3.78792e-09
7.77553e-10
2.62231e-26
1.00758e-24
3.66946e-23
1.22891e-21
3.75402e-20
1.03579e-18
2.5504e-17
5.51963e-16
1.02949e-14
1.61151e-13
2.03906e-12
1.96985e-11
1.31951e-10
5.0529e-10
6.54706e-10
6.66797e-10
5.58332e-10
1.8554e-10
3.80436e-11
1.17358e-27
4.49811e-26
1.63415e-24
5.45936e-23
1.66358e-21
4.57863e-20
1.12455e-18
2.42763e-17
4.51637e-16
7.0516e-15
8.89957e-14
8.57546e-13
5.72974e-12
2.18893e-11
2.83288e-11
2.88411e-11
2.4132e-11
7.99605e-12
1.63818e-12
4.68664e-29
1.79188e-27
6.49408e-26
2.16424e-24
6.57867e-23
1.80615e-21
4.42502e-20
9.52853e-19
1.76821e-17
2.75377e-16
3.46659e-15
3.33185e-14
2.22062e-13
8.46363e-13
1.0942e-12
1.11361e-12
9.31146e-13
3.07749e-13
6.30114e-14
1.63477e-30
6.2356e-29
2.25465e-27
7.49637e-26
2.27331e-24
6.2265e-23
1.52183e-21
3.26912e-20
6.05184e-19
9.40206e-18
1.18069e-16
1.13204e-15
7.52675e-15
2.86237e-14
3.69714e-14
3.76158e-14
3.14324e-14
1.03659e-14
2.1215e-15
)
;

boundaryField
{
    top
    {
        type            zeroGradient;
    }
    left
    {
        type            fixedValue;
        value           uniform 0;
    }
    bottom
    {
        type            zeroGradient;
    }
    right
    {
        type            zeroGradient;
    }
    frontAndBack
    {
        type            empty;
    }
}


// ************************************************************************* //
