/*--------------------------------*- C++ -*----------------------------------*\
| =========                 |                                                 |
| \\      /  F ield         | OpenFOAM: The Open Source CFD Toolbox           |
|  \\    /   O peration     | Version:  v1806                                 |
|   \\  /    A nd           | Web:      www.OpenFOAM.com                      |
|    \\/     M anipulation  |                                                 |
\*---------------------------------------------------------------------------*/
FoamFile
{
    version     2.0;
    format      ascii;
    class       volScalarField;
    location    "0.075";
    object      T;
}
// * * * * * * * * * * * * * * * * * * * * * * * * * * * * * * * * * * * * * //

dimensions      [0 0 0 1 0 0 0];


internalField   nonuniform List<scalar> 
1881
(
-3.66552e-25
-3.65008e-25
-3.23569e-25
-5.69592e-26
-5.23202e-24
-2.45035e-22
-6.01109e-21
-1.11322e-19
-1.68517e-18
-2.1288e-17
-2.24087e-16
-1.93587e-15
-1.33365e-14
-6.98824e-14
-2.57241e-13
-5.74711e-13
-5.76037e-13
-2.61057e-13
-8.43831e-14
6.98204e-25
8.36193e-25
2.14877e-24
2.4754e-23
4.13023e-22
6.54722e-21
9.45511e-20
1.22932e-18
1.42199e-17
1.44211e-16
1.25846e-15
9.21865e-15
5.4785e-14
2.51335e-13
8.23474e-13
1.68504e-12
1.68482e-12
8.30503e-13
3.04866e-13
4.01789e-24
4.18382e-24
6.12764e-24
4.3189e-23
7.28738e-22
1.23287e-20
1.9006e-19
2.63274e-18
3.23947e-17
3.49077e-16
3.23419e-15
2.51387e-14
1.58423e-13
7.6975e-13
2.66195e-12
5.68664e-12
5.69267e-12
2.69243e-12
9.31643e-13
3.01637e-25
-5.57568e-25
-4.34809e-24
-5.06442e-23
-7.02795e-22
-8.91082e-21
-9.60279e-20
-8.11513e-19
-4.14794e-18
1.33069e-17
6.2206e-16
8.44807e-15
7.44542e-14
4.56876e-13
1.87227e-12
4.47345e-12
4.49077e-12
1.90859e-12
5.48406e-13
-4.08664e-23
-4.39965e-23
-6.65965e-23
-4.34287e-22
-6.68251e-21
-1.04621e-19
-1.49881e-18
-1.93358e-17
-2.21907e-16
-2.23244e-15
-1.93212e-14
-1.40335e-13
-8.26707e-13
-3.75884e-12
-1.22077e-11
-2.47994e-11
-2.47916e-11
-1.23071e-11
-4.56159e-12
-7.35225e-23
-7.11631e-23
-1.01655e-22
-8.08913e-22
-1.37982e-20
-2.30069e-19
-3.49411e-18
-4.77432e-17
-5.8018e-16
-6.1809e-15
-5.6668e-14
-4.36234e-13
-2.72482e-12
-1.31332e-11
-4.50987e-11
-9.58387e-11
-9.59245e-11
-4.55949e-11
-1.58978e-11
3.10346e-22
3.43346e-22
4.09716e-22
7.74951e-22
4.22025e-21
2.40445e-20
-1.91489e-19
-9.62472e-18
-1.96871e-16
-2.90152e-15
-3.35981e-14
-3.09868e-13
-2.23933e-12
-1.21678e-11
-4.60432e-11
-1.04799e-10
-1.05071e-10
-4.67552e-11
-1.46548e-11
1.30952e-21
1.33303e-21
1.62965e-21
6.88242e-21
9.5817e-20
1.47513e-18
2.08864e-17
2.66276e-16
3.01831e-15
2.99716e-14
2.55834e-13
1.83098e-12
1.06177e-11
4.74781e-11
1.51606e-10
3.03555e-10
3.0335e-10
1.52724e-10
5.7672e-11
-1.28728e-21
-1.60863e-21
-1.44145e-21
1.0488e-20
2.32772e-19
3.88164e-18
5.81463e-17
7.83675e-16
9.40117e-15
9.89473e-14
8.96871e-13
6.83026e-12
4.22343e-11
2.01662e-10
6.86732e-10
1.45015e-09
1.45118e-09
6.93967e-10
2.44185e-10
-1.70363e-20
-1.77857e-20
-1.86862e-20
-1.64784e-20
6.82159e-20
1.91231e-18
3.56388e-17
5.67524e-16
7.815e-15
9.252e-14
9.29064e-13
7.74561e-12
5.19135e-11
2.66255e-10
9.64198e-10
2.13073e-09
2.13457e-09
9.76974e-10
3.21288e-10
-1.4211e-20
-1.15855e-20
-1.12641e-20
-6.98567e-20
-1.11446e-18
-1.70958e-17
-2.37761e-16
-2.96946e-15
-3.29093e-14
-3.18766e-13
-2.64674e-12
-1.83635e-11
-1.0282e-10
-4.41998e-10
-1.35233e-09
-2.60453e-09
-2.60023e-09
-1.35967e-09
-5.38183e-10
1.75518e-19
1.89275e-19
1.97975e-19
2.79801e-20
-3.29355e-18
-5.71724e-17
-8.47018e-16
-1.12611e-14
-1.33301e-13
-1.38503e-12
-1.23988e-11
-9.32952e-11
-5.70236e-10
-2.69296e-09
-9.07891e-09
-1.90234e-08
-1.9033e-08
-9.17004e-09
-3.26235e-09
4.86697e-19
4.79934e-19
4.61983e-19
2.77231e-19
-3.05022e-18
-6.14267e-17
-9.89132e-16
-1.41683e-14
-1.79664e-13
-1.99035e-12
-1.89211e-11
-1.50655e-10
-9.71131e-10
-4.81897e-09
-1.69831e-08
-3.68105e-08
-3.68583e-08
-1.71853e-08
-5.82232e-09
-1.19253e-18
-1.37421e-18
-1.58313e-18
-1.28583e-18
7.45988e-18
1.39301e-16
1.88122e-15
2.23214e-14
2.32433e-13
2.08673e-12
1.57549e-11
9.6635e-11
4.57829e-10
1.54858e-09
3.28231e-09
3.65827e-09
3.58459e-09
3.23339e-09
1.91779e-09
-8.08209e-18
-8.3563e-18
-8.57388e-18
-6.48565e-18
3.5132e-17
7.00329e-16
1.03026e-14
1.34989e-13
1.57418e-12
1.6114e-11
1.42125e-10
1.05371e-09
6.34649e-09
2.95434e-08
9.82658e-08
2.03708e-07
2.03759e-07
9.91945e-08
3.58178e-08
-1.32782e-18
3.25577e-19
2.69446e-18
8.85323e-18
7.87521e-17
1.20315e-15
1.82048e-14
2.49777e-13
3.05112e-12
3.26895e-11
3.01532e-10
2.33625e-09
1.46921e-08
7.13092e-08
2.4655e-07
5.26896e-07
5.27389e-07
2.49263e-07
8.62405e-08
9.36268e-17
1.00212e-16
1.08437e-16
1.14995e-16
9.50345e-17
-2.06799e-16
-2.52416e-15
-4.1358e-15
3.15155e-13
7.05279e-12
9.68679e-11
9.82036e-10
7.53984e-09
4.27246e-08
1.66577e-07
3.86536e-07
3.87563e-07
1.69122e-07
5.12254e-08
1.99285e-16
1.92632e-16
1.81977e-16
1.45895e-16
-2.76248e-16
-6.62725e-15
-9.61953e-14
-1.23504e-12
-1.40999e-11
-1.41195e-10
-1.2172e-09
-8.81226e-09
-5.17825e-08
-2.35033e-07
-7.62599e-07
-1.54886e-06
-1.54854e-06
-7.69078e-07
-2.85414e-07
-7.13517e-16
-8.05115e-16
-9.24812e-16
-1.10557e-15
-2.19985e-15
-1.79252e-14
-2.48057e-13
-3.30321e-12
-3.93886e-11
-4.12617e-10
-3.72575e-09
-2.8289e-08
-1.74536e-07
-8.32164e-07
-2.83169e-06
-5.97859e-06
-5.98246e-06
-2.8609e-06
-1.00735e-06
-3.74862e-15
-3.85118e-15
-3.97223e-15
-4.11242e-15
-4.88851e-15
-1.74208e-14
-2.19059e-13
-3.12379e-12
-4.00553e-11
-4.48678e-10
-4.30905e-09
-3.46355e-08
-2.25233e-07
-1.12679e-06
-4.00012e-06
-8.71869e-06
-8.73002e-06
-4.04721e-06
-1.35976e-06
9.8746e-16
1.87011e-15
3.01414e-15
4.44024e-15
8.33421e-15
4.69646e-14
5.49508e-13
6.60488e-12
7.11922e-11
6.69066e-10
5.36439e-09
3.57059e-08
1.90124e-07
7.68466e-07
2.18321e-06
3.89964e-06
3.88744e-06
2.19069e-06
9.41362e-07
4.57482e-14
4.87039e-14
5.23545e-14
5.66349e-14
7.00828e-14
2.28294e-13
2.46369e-12
3.14869e-11
3.67104e-10
3.76641e-09
3.33202e-08
2.47933e-07
1.49958e-06
7.01341e-06
2.34425e-05
4.88053e-05
4.88219e-05
2.36687e-05
8.50018e-06
7.81103e-14
7.34895e-14
6.73369e-14
6.05803e-14
6.68375e-14
3.11175e-13
4.12688e-12
5.57734e-11
6.75458e-10
7.18324e-09
6.58287e-08
5.07155e-07
3.17394e-06
1.53426e-05
5.28765e-05
0.000112757
0.000112849
5.34394e-05
1.85517e-05
-3.80045e-13
-4.24101e-13
-4.78488e-13
-5.36687e-13
-5.96996e-13
-6.21339e-13
2.54054e-13
1.73052e-11
2.72752e-10
3.45758e-09
3.64768e-08
3.16079e-07
2.18588e-06
1.15048e-05
4.25496e-05
9.54472e-05
9.56156e-05
4.30914e-05
1.38299e-05
-1.64962e-12
-1.68157e-12
-1.71539e-12
-1.74327e-12
-1.81498e-12
-2.73753e-12
-1.56773e-11
-1.78798e-10
-2.00294e-09
-1.98332e-08
-1.69121e-07
-1.21068e-06
-7.03144e-06
-3.15323e-05
-0.000101099
-0.000203309
-0.000203239
-0.00010194
-3.83385e-05
1.20917e-12
1.66765e-12
2.23643e-12
2.85738e-12
3.38391e-12
1.51023e-12
-3.59187e-11
-5.36663e-10
-6.3899e-09
-6.62504e-08
-5.91907e-07
-4.44922e-06
-2.7193e-05
-0.000128533
-0.00043405
-0.000911214
-0.000911664
-0.000438367
-0.00015565
2.15278e-11
2.28065e-11
2.43057e-11
2.58001e-11
2.70653e-11
2.50039e-11
-2.62552e-11
-7.39437e-10
-9.36208e-09
-1.00488e-07
-9.26781e-07
-7.18347e-06
-4.52247e-05
-0.00021988
-0.000761875
-0.00163156
-0.00163295
-0.000769996
-0.000265688
2.77197e-11
2.4804e-11
2.10753e-11
1.66547e-11
1.15123e-11
5.87845e-12
-3.32041e-13
-6.19323e-11
-1.43182e-09
-2.28982e-08
-2.77977e-07
-2.64263e-06
-1.95133e-05
-0.000107785
-0.000413123
-0.000948766
-0.000950704
-0.000418576
-0.00012903
-1.96604e-10
-2.17469e-10
-2.42219e-10
-2.6829e-10
-2.94661e-10
-3.09517e-10
-1.49897e-10
2.21609e-09
2.92207e-08
2.96189e-07
2.5578e-06
1.85446e-05
0.000109212
0.000497224
0.00161943
0.00330131
0.00330115
0.00163389
0.000603929
-7.03604e-10
-7.10057e-10
-7.1461e-10
-7.13549e-10
-7.03734e-10
-6.54192e-10
-1.32215e-10
6.43113e-09
8.26664e-08
8.61882e-07
7.70663e-06
5.79688e-05
0.000354625
0.00167817
0.00567459
0.0119273
0.0119332
0.00573091
0.00203179
9.23687e-10
1.15815e-09
1.4382e-09
1.74461e-09
2.07968e-09
2.48492e-09
3.56505e-09
1.33223e-08
1.25609e-07
1.29886e-06
1.18589e-05
9.13047e-05
0.000571537
0.00276486
0.00953962
0.020367
0.0203824
0.00963879
0.00334126
9.97859e-09
1.05158e-08
1.11131e-08
1.16958e-08
1.2251e-08
1.27819e-08
1.35005e-08
1.77861e-08
7.04376e-08
6.78664e-07
6.6656e-06
5.54064e-05
0.000371468
0.00190854
0.0069295
0.0153534
0.0153739
0.00700915
0.00229496
8.59743e-09
6.87568e-09
4.76703e-09
2.32527e-09
-4.81754e-10
-3.77023e-09
-8.82944e-09
-3.12686e-08
-2.4073e-07
-2.24019e-06
-1.88711e-05
-0.000134372
-0.000777126
-0.0034716
-0.011092
-0.0222473
-0.0222408
-0.0111872
-0.00422447
-9.94691e-08
-1.09236e-07
-1.2032e-07
-1.31865e-07
-1.43792e-07
-1.56318e-07
-1.73361e-07
-2.45896e-07
-9.52278e-07
-8.00035e-06
-6.93123e-05
-0.000515862
-0.00313087
-0.0147094
-0.0494167
-0.103353
-0.103394
-0.0498971
-0.0178181
-2.93099e-07
-2.91881e-07
-2.88749e-07
-2.82582e-07
-2.72945e-07
-2.59935e-07
-2.50124e-07
-3.33558e-07
-1.55227e-06
-1.43743e-05
-0.000128279
-0.000972761
-0.00600548
-0.0286827
-0.0978477
-0.207128
-0.207248
-0.0988278
-0.034692
5.91205e-07
7.10248e-07
8.4636e-07
9.9321e-07
1.15053e-06
1.31763e-06
1.48661e-06
1.55742e-06
3.54364e-07
-1.41714e-05
-0.000147076
-0.00115213
-0.00725239
-0.0352275
-0.121997
-0.261235
-0.261428
-0.123249
-0.0425418
4.56943e-06
4.787e-06
5.01119e-06
5.21944e-06
5.40699e-06
5.56999e-06
5.70081e-06
5.76929e-06
5.37743e-06
-3.86551e-08
-5.45572e-05
-0.000504471
-0.00345534
-0.0179467
-0.0656836
-0.146344
-0.146533
-0.0664194
-0.0215489
1.879e-06
9.06264e-07
-2.13312e-07
-1.46009e-06
-2.83588e-06
-4.33723e-06
-6.00192e-06
-7.71133e-06
-7.64356e-06
1.19385e-05
0.000194796
0.0014943
0.00882366
0.0399689
0.129398
0.262496
0.262475
0.130553
0.0485788
-4.97085e-05
-5.38189e-05
-5.81549e-05
-6.24959e-05
-6.68149e-05
-7.09669e-05
-7.59238e-05
-8.09846e-05
-8.01341e-05
-1.58985e-05
0.000593687
0.00506081
0.031192
0.146709
0.492504
1.02935
1.02972
0.497251
0.17774
-0.000118934
-0.000117042
-0.000114654
-0.000111566
-0.000107759
-9.83166e-05
-8.31953e-05
-6.14846e-05
-2.20843e-05
0.000141176
0.00136887
0.0102134
0.0623162
0.295
0.998977
2.10324
2.10425
1.00883
0.357125
0.000274832
0.000304133
0.000334592
0.000365319
0.000396483
0.000624264
0.000853191
0.0010847
0.00133562
0.00158012
0.00346381
0.0171465
0.0982275
0.462346
1.57001
3.31653
3.31825
1.58552
0.559075
0.00170281
0.00173482
0.0017699
0.00180506
0.00184037
0.00206213
0.00228379
0.00250729
0.00275485
0.00306464
0.00554022
0.0236602
0.131463
0.617279
2.10013
4.44572
4.44811
2.12087
0.745896
0.00310325
0.00313154
0.00316485
0.00319833
0.00323193
0.00344185
0.00365167
0.00386367
0.00410407
0.00446176
0.00738213
0.0288554
0.156929
0.735386
2.50484
5.30949
5.3124
2.52954
0.888188
0.00442893
0.00445346
0.00448471
0.00451631
0.00454801
0.00474596
0.00494381
0.00514407
0.00537534
0.00576098
0.00894825
0.0324461
0.172806
0.80762
2.75202
5.8378
5.84103
2.77912
0.975072
0.00567825
0.00569925
0.00572837
0.00575805
0.00578786
0.0059738
0.00615966
0.00634801
0.00656854
0.00696544
0.01027
0.0346689
0.180527
0.840671
2.86404
6.07722
6.08059
2.8922
1.01467
0.00685068
0.00686831
0.00689522
0.00692292
0.00695076
0.00712465
0.00729845
0.00747476
0.00768352
0.00808161
0.011413
0.0360302
0.183241
0.849681
2.89286
6.13826
6.14166
2.92128
1.02528
0.00794536
0.00795985
0.00798455
0.00801032
0.00803625
0.00819817
0.00836001
0.00852438
0.00872117
0.00911671
0.0124398
0.0370066
0.183928
0.84908
2.88836
6.12765
6.13104
2.91672
1.02433
0.00896716
0.00897934
0.0090025
0.00902706
0.00905186
0.00920261
0.00935335
0.00950671
0.0096925
0.0100862
0.013398
0.0378835
0.184316
0.847231
2.87958
6.10777
6.11115
2.90784
1.02189
0.00993613
0.00994707
0.00996955
0.00999363
0.0100179
0.0101579
0.0102982
0.0104413
0.0106169
0.0110099
0.0143147
0.0387504
0.184885
0.846444
2.87461
6.0961
6.09947
2.9028
1.02073
0.0108348
0.0108401
0.010857
0.0108753
0.0108936
0.0110148
0.0111331
0.0112513
0.011399
0.0117733
0.0150558
0.039441
0.185358
0.845982
2.87128
6.08822
6.09156
2.89937
1.01993
0.0114274
0.0114169
0.0114179
0.0114208
0.0114239
0.0114269
0.0114294
0.0114341
0.0114708
0.0118394
0.0151139
0.039472
0.185242
0.845174
2.86825
6.08149
6.08482
2.89628
1.01892
0.0114476
0.0114344
0.0114316
0.0114312
0.0114311
0.0114311
0.0114312
0.0114341
0.0114697
0.0118383
0.0151171
0.039507
0.185452
0.8461
2.87112
6.08709
6.09041
2.89918
1.02005
0.011444
0.0114314
0.0114284
0.011428
0.011428
0.011428
0.0114282
0.0114313
0.0114672
0.0118385
0.015139
0.0396885
0.186577
0.851419
2.88903
6.12451
6.12786
2.9173
1.02655
0.0114491
0.0114374
0.0114346
0.0114345
0.0114349
0.0114353
0.011436
0.0114396
0.0114764
0.0118529
0.0151965
0.0400682
0.188898
0.86256
2.92719
6.20537
6.2088
2.95593
1.04013
0.0114744
0.0114637
0.0114613
0.0114618
0.0114629
0.011464
0.0114654
0.0114697
0.0115078
0.0118904
0.015285
0.0405442
0.191757
0.876454
2.97551
6.30904
6.31258
3.00485
1.05704
0.0115252
0.0115155
0.0115135
0.0115145
0.0115162
0.0115179
0.0115198
0.0115247
0.0115634
0.0119483
0.0153616
0.0407771
0.193041
0.883006
2.99965
6.36316
6.36679
3.02933
1.06495
0.0115888
0.0115796
0.0115773
0.0115781
0.0115795
0.011581
0.0115827
0.0115873
0.0116248
0.0120006
0.0153381
0.0402115
0.189367
0.865918
2.94357
6.24849
6.25208
2.9726
1.04402
0.0116233
0.0116136
0.0116097
0.0116088
0.0116084
0.0116081
0.011608
0.0116104
0.0116435
0.0119914
0.015097
0.038262
0.177275
0.808433
2.74904
5.84018
5.84345
2.77574
0.973857
0.0115582
0.0115469
0.0115396
0.0115348
0.0115306
0.0115264
0.0115223
0.0115203
0.011545
0.0118432
0.0145335
0.0346095
0.155081
0.702332
2.3868
5.07418
5.07677
2.40912
0.84452
0.011311
0.0112968
0.0112845
0.0112741
0.0112641
0.0112541
0.011244
0.0112357
0.0112487
0.0114792
0.0136038
0.029446
0.124342
0.555106
1.88174
4.0017
4.00331
1.89794
0.665202
0.0108158
0.0107983
0.0107801
0.0107631
0.0107464
0.0107296
0.0107127
0.0106971
0.010697
0.0108528
0.0123515
0.0234887
0.0898247
0.389895
1.31321
2.79086
2.79134
1.32252
0.464125
0.0100514
0.0100308
0.0100071
0.00998384
0.00996078
0.00993766
0.0099145
0.00989214
0.00987996
0.00996781
0.0108943
0.0177108
0.0577104
0.236773
0.785224
1.66376
1.66316
0.788137
0.277898
0.0090506
0.00902793
0.00900017
0.00897227
0.00894447
0.00891665
0.0088888
0.00886149
0.00884047
0.00887759
0.00937431
0.0129296
0.0329652
0.119934
0.382041
0.801453
0.800009
0.380063
0.135917
0.00788736
0.00786396
0.00783417
0.00780376
0.00777339
0.00774303
0.00771268
0.00768273
0.00765679
0.00766413
0.00790423
0.00949787
0.0174572
0.0484521
0.135809
0.274082
0.27211
0.130816
0.0491537
0.00664891
0.006626
0.00659605
0.00656513
0.0065342
0.0065033
0.00647244
0.00644195
0.00641452
0.00640966
0.00653846
0.0072679
0.00985627
0.0157718
0.0243743
0.0354041
0.0331787
0.0179829
0.00959943
0.00541061
0.00538907
0.00536031
0.00533037
0.00530037
0.00527042
0.00524054
0.00521103
0.00518439
0.00517789
0.00528193
0.00580749
0.00710084
0.00687378
-0.0040545
-0.0248687
-0.0271562
-0.010791
-0.000968462
0.00422682
0.00420723
0.00418061
0.00415271
0.00412471
0.00409676
0.00406892
0.00404146
0.0040169
0.0040127
0.00412244
0.00468672
0.00624201
0.00730493
0.000478074
-0.0138176
-0.0160404
-0.00603966
-6.34034e-07
0.00313758
0.00312041
0.00309673
0.00307176
0.00304668
0.00302167
0.00299679
0.00297229
0.0029506
0.00294875
0.00306106
0.00365737
0.00553459
0.0084914
0.00822928
0.0047217
0.00267113
0.002262
0.00222565
0.00217926
0.00216496
0.00214502
0.00212388
0.00210265
0.00208151
0.00206051
0.00203988
0.00202174
0.00202111
0.00212247
0.00266738
0.00446763
0.00783143
0.010095
0.0110894
0.00932158
0.00496662
0.00262265
0.00138703
0.00137599
0.00136042
0.00134388
0.00132728
0.00131078
0.00129442
0.00127839
0.00126435
0.00126407
0.00134401
0.00177395
0.00320005
0.00589104
0.00779694
0.00878951
0.00740038
0.0037647
0.00180748
0.000786205
0.000778487
0.000767544
0.000755892
0.000744215
0.000732641
0.000721198
0.000710019
0.000700234
0.000699961
0.000754904
0.00104982
0.00201883
0.00378387
0.00476174
0.00488937
0.00392318
0.0019516
0.000916302
0.000379847
0.000375134
0.000368423
0.000361274
0.000354128
0.000347068
0.000340114
0.000333343
0.000327417
0.000327109
0.000359302
0.000532437
0.00109804
0.00210133
0.00253294
0.0023654
0.00179205
0.000862349
0.000387783
0.000143523
0.000141127
0.000137706
0.000134066
0.000130441
0.000126877
0.000123383
0.000119997
0.000117029
0.00011674
0.000131904
0.000214239
0.000484221
0.00096423
0.00116962
0.00108767
0.000814482
0.00037257
0.000147337
3.21363e-05
3.12162e-05
2.99017e-05
2.85075e-05
2.71286e-05
2.57839e-05
2.44769e-05
2.32188e-05
2.2111e-05
2.18922e-05
2.67738e-05
5.39806e-05
0.000144466
0.000309871
0.000397264
0.000401674
0.000311678
0.000134298
4.19828e-05
-4.83562e-06
-5.02325e-06
-5.29036e-06
-5.56975e-06
-5.83979e-06
-6.09608e-06
-6.33813e-06
-6.56544e-06
-6.77094e-06
-6.89839e-06
-6.60832e-06
-4.42396e-06
3.53942e-06
1.99844e-05
3.47664e-05
4.73489e-05
4.00018e-05
1.30307e-05
-1.50751e-06
-8.58762e-06
-8.53409e-06
-8.45657e-06
-8.37143e-06
-8.28287e-06
-8.19171e-06
-8.09837e-06
-8.00478e-06
-7.92671e-06
-7.97612e-06
-8.78204e-06
-1.28805e-05
-2.61855e-05
-5.00778e-05
-6.20468e-05
-6.12481e-05
-4.79453e-05
-2.33501e-05
-1.05294e-05
-3.83815e-06
-3.77181e-06
-3.6766e-06
-3.57466e-06
-3.47253e-06
-3.37154e-06
-3.27203e-06
-3.17522e-06
-3.09155e-06
-3.09646e-06
-3.6188e-06
-6.41021e-06
-1.56417e-05
-3.26045e-05
-4.21726e-05
-4.37959e-05
-3.46719e-05
-1.55455e-05
-5.52098e-06
-4.12405e-07
-3.87116e-07
-3.51014e-07
-3.12826e-07
-2.75248e-07
-2.3883e-07
-2.03668e-07
-1.70023e-07
-1.40278e-07
-1.32008e-07
-2.46359e-07
-9.00845e-07
-3.09715e-06
-7.1222e-06
-9.16877e-06
-9.14997e-06
-6.96381e-06
-2.7578e-06
-5.94432e-07
4.71837e-07
4.71921e-07
4.7192e-07
4.71668e-07
4.71067e-07
4.70098e-07
4.68779e-07
4.6722e-07
4.66277e-07
4.71968e-07
5.17996e-07
7.40278e-07
1.45949e-06
2.78443e-06
3.62357e-06
3.91835e-06
3.21503e-06
1.58351e-06
7.12937e-07
2.55937e-07
2.51537e-07
2.45204e-07
2.38399e-07
2.31555e-07
2.24762e-07
2.18046e-07
2.11499e-07
2.05907e-07
2.06944e-07
2.46887e-07
4.57514e-07
1.15072e-06
2.40677e-06
3.03376e-06
2.99782e-06
2.30691e-06
1.01505e-06
3.47787e-07
1.05867e-08
8.95901e-09
6.64098e-09
4.19695e-09
1.80285e-09
-5.05207e-10
-2.72141e-09
-4.83236e-09
-6.71251e-09
-7.42525e-09
-1.54177e-09
3.34384e-08
1.51149e-07
3.61756e-07
4.39521e-07
3.82375e-07
2.62987e-07
8.79681e-08
1.89038e-09
-3.87099e-08
-3.84827e-08
-3.81466e-08
-3.77692e-08
-3.73683e-08
-3.69479e-08
-3.65103e-08
-3.60682e-08
-3.57218e-08
-3.61872e-08
-4.15088e-08
-6.80762e-08
-1.54277e-07
-3.08825e-07
-3.83012e-07
-3.72294e-07
-2.862e-07
-1.32027e-07
-5.2434e-08
-1.15884e-08
-1.1258e-08
-1.07843e-08
-1.02787e-08
-9.77536e-09
-9.2812e-09
-8.7979e-09
-8.33105e-09
-7.92834e-09
-7.93769e-09
-1.03513e-08
-2.33484e-08
-6.63442e-08
-1.43873e-07
-1.79009e-07
-1.701e-07
-1.27036e-07
-5.28192e-08
-1.50256e-08
3.71729e-09
3.75347e-09
3.80345e-09
3.85353e-09
3.89913e-09
3.93934e-09
3.97421e-09
4.0047e-09
4.03785e-09
4.12242e-09
4.52807e-09
6.32235e-09
1.19153e-08
2.15537e-08
2.52767e-08
2.27396e-08
1.70847e-08
8.89991e-09
4.71762e-09
2.44248e-09
2.39607e-09
2.3292e-09
2.25725e-09
2.18484e-09
2.11294e-09
2.04184e-09
1.97263e-09
1.91449e-09
1.9341e-09
2.41231e-09
4.9107e-09
1.31389e-08
2.80349e-08
3.52158e-08
3.43199e-08
2.61213e-08
1.12171e-08
3.56142e-09
-2.6909e-10
-2.80898e-10
-2.97551e-10
-3.1487e-10
-3.31529e-10
-3.47257e-10
-3.62028e-10
-3.75866e-10
-3.88809e-10
-4.00789e-10
-4.09943e-10
-4.02211e-10
-3.21464e-10
-7.90604e-11
2.62465e-10
7.13653e-10
6.5125e-10
5.22197e-11
-2.66486e-10
-3.96105e-10
-3.9e-10
-3.81172e-10
-3.71616e-10
-3.61925e-10
-3.52228e-10
-3.42565e-10
-3.33118e-10
-3.25386e-10
-3.30242e-10
-4.09816e-10
-8.1908e-10
-2.16596e-09
-4.61948e-09
-5.87652e-09
-5.87349e-09
-4.53878e-09
-1.97086e-09
-6.42915e-10
2.28015e-11
2.48859e-11
2.78331e-11
3.09149e-11
3.39016e-11
3.67464e-11
3.94437e-11
4.19896e-11
4.43321e-11
4.60396e-11
4.44222e-11
2.74957e-11
-3.63659e-11
-1.64103e-10
-2.47937e-10
-2.88355e-10
-2.26461e-10
-6.22797e-11
2.2049e-11
5.88121e-11
5.79169e-11
5.66218e-11
5.52188e-11
5.37946e-11
5.23679e-11
5.09453e-11
4.95547e-11
4.84314e-11
4.92821e-11
6.18781e-11
1.26411e-10
3.39115e-10
7.28555e-10
9.35259e-10
9.49193e-10
7.39155e-10
3.20392e-10
1.03269e-10
-5.56752e-12
-5.84448e-12
-6.23491e-12
-6.64149e-12
-7.03341e-12
-7.40439e-12
-7.75385e-12
-8.08255e-12
-8.39396e-12
-8.7054e-12
-9.08489e-12
-9.68956e-12
-1.05926e-11
-1.16311e-11
-1.43283e-11
-1.78364e-11
-1.71648e-11
-1.31026e-11
-1.03658e-11
-8.33284e-12
-8.18256e-12
-7.96598e-12
-7.73247e-12
-7.49689e-12
-7.26238e-12
-7.02995e-12
-6.804e-12
-6.62147e-12
-6.75173e-12
-8.74059e-12
-1.89598e-11
-5.26806e-11
-1.14284e-10
-1.4587e-10
-1.46016e-10
-1.12657e-10
-4.81059e-11
-1.48201e-11
1.59383e-12
1.61852e-12
1.65286e-12
1.68784e-12
1.72054e-12
1.75039e-12
1.77741e-12
1.80215e-12
1.82885e-12
1.8874e-12
2.1449e-12
3.27399e-12
6.85321e-12
1.33729e-11
1.73256e-11
1.84329e-11
1.49474e-11
7.21989e-12
3.11198e-12
9.25379e-13
9.01661e-13
8.67676e-13
8.31319e-13
7.94994e-13
7.59203e-13
7.24086e-13
6.90188e-13
6.62206e-13
6.74552e-13
9.25415e-13
2.23389e-12
6.56255e-12
1.44227e-11
1.81277e-11
1.75298e-11
1.32236e-11
5.48516e-12
1.54137e-12
-3.71722e-13
-3.70559e-13
-3.68751e-13
-3.66586e-13
-3.6413e-13
-3.61401e-13
-3.58426e-13
-3.55378e-13
-3.53675e-13
-3.63559e-13
-4.43427e-13
-8.32392e-13
-2.09798e-12
-4.38588e-12
-5.51116e-12
-5.41601e-12
-4.16125e-12
-1.8413e-12
-6.46211e-13
-2.11389e-14
-1.82491e-14
-1.41434e-14
-9.80634e-15
-5.54366e-15
-1.41865e-15
2.55788e-15
6.36402e-15
9.79913e-15
1.13454e-14
2.0486e-15
-5.59626e-14
-2.55693e-13
-6.23865e-13
-7.87929e-13
-7.45945e-13
-5.45811e-13
-1.95303e-13
-2.02226e-14
7.45748e-14
7.34898e-14
7.19249e-14
7.02322e-14
6.85163e-14
6.67994e-14
6.50898e-14
6.34304e-14
6.21871e-14
6.4032e-14
8.43239e-14
1.8642e-13
5.21869e-13
1.13031e-12
1.42116e-12
1.38197e-12
1.04918e-12
4.44919e-13
1.36006e-13
-1.20573e-14
-1.22811e-14
-1.2594e-14
-1.2916e-14
-1.32215e-14
-1.35052e-14
-1.37673e-14
-1.40128e-14
-1.42827e-14
-1.48664e-14
-1.73869e-14
-2.83646e-14
-6.28258e-14
-1.23169e-13
-1.48569e-13
-1.37088e-13
-1.02718e-13
-4.8604e-14
-2.08756e-14
-7.20746e-15
-7.03913e-15
-6.79841e-15
-6.54114e-15
-6.2842e-15
-6.03109e-15
-5.78285e-15
-5.54416e-15
-5.35606e-15
-5.52032e-15
-7.78102e-15
-1.93791e-14
-5.78304e-14
-1.28536e-13
-1.65441e-13
-1.6714e-13
-1.29263e-13
-5.4176e-14
-1.55248e-14
1.7288e-15
1.71578e-15
1.6968e-15
1.67583e-15
1.65401e-15
1.63159e-15
1.6087e-15
1.58634e-15
1.57278e-15
1.62841e-15
2.09991e-15
4.41768e-15
1.20175e-14
2.5927e-14
3.32509e-14
3.36603e-14
2.61812e-14
1.13331e-14
3.65475e-15
)
;

boundaryField
{
    top
    {
        type            zeroGradient;
    }
    left
    {
        type            fixedValue;
        value           uniform 0;
    }
    bottom
    {
        type            zeroGradient;
    }
    right
    {
        type            zeroGradient;
    }
    frontAndBack
    {
        type            empty;
    }
}


// ************************************************************************* //
