/*--------------------------------*- C++ -*----------------------------------*\
| =========                 |                                                 |
| \\      /  F ield         | OpenFOAM: The Open Source CFD Toolbox           |
|  \\    /   O peration     | Version:  v1806                                 |
|   \\  /    A nd           | Web:      www.OpenFOAM.com                      |
|    \\/     M anipulation  |                                                 |
\*---------------------------------------------------------------------------*/
FoamFile
{
    version     2.0;
    format      ascii;
    class       volScalarField;
    location    "0.075";
    object      T;
}
// * * * * * * * * * * * * * * * * * * * * * * * * * * * * * * * * * * * * * //

dimensions      [0 0 0 1 0 0 0];


internalField   nonuniform List<scalar> 
1881
(
8.02817e-102
3.53153e-100
1.87764e-98
1.04099e-96
5.62375e-95
2.87058e-93
1.36145e-91
5.91812e-90
2.32241e-88
8.07005e-87
2.41837e-85
6.01415e-84
1.16811e-82
1.58939e-81
1.18127e-80
1.31971e-80
1.31856e-80
1.17234e-80
1.60496e-81
1.03196e-99
5.52535e-98
3.24891e-96
1.89379e-94
1.0553e-92
5.5243e-91
2.68395e-89
1.19562e-87
4.81247e-86
1.71706e-84
5.28912e-83
1.35346e-81
2.70751e-80
3.79664e-79
2.906e-78
3.23753e-78
3.23488e-78
2.88463e-78
3.82622e-79
1.52383e-97
9.22348e-96
5.74718e-94
3.46425e-92
1.98086e-90
1.06215e-88
5.28678e-87
2.4148e-85
9.97665e-84
3.65775e-82
1.15905e-80
3.05431e-79
6.29779e-78
9.10824e-77
7.18537e-76
7.98274e-76
7.97656e-76
7.134e-76
9.16125e-77
2.42181e-95
1.5742e-93
1.01823e-91
6.30459e-90
3.69307e-88
2.02844e-86
1.035e-84
4.85117e-83
2.059e-81
7.76403e-80
2.53315e-78
6.88029e-77
1.46358e-75
2.18506e-74
1.77825e-73
1.97003e-73
1.96859e-73
1.76591e-73
2.19354e-74
3.97144e-93
2.69729e-91
1.79492e-89
1.13885e-87
6.83266e-86
3.84618e-84
2.01329e-82
9.69174e-81
4.22966e-79
1.64183e-77
5.52042e-76
1.54682e-74
3.39755e-73
5.24087e-72
4.40405e-71
4.86518e-71
4.86184e-71
4.37441e-71
5.25123e-72
6.56468e-91
4.60053e-89
3.13871e-87
2.03957e-85
1.25378e-83
7.23829e-82
3.8902e-80
1.92504e-78
8.64616e-77
3.45799e-75
1.19929e-73
3.46971e-72
7.8763e-71
1.25645e-69
1.09125e-68
1.20209e-68
1.20131e-68
1.08415e-68
1.25659e-69
1.0815e-88
7.78034e-87
5.43645e-85
3.6188e-83
2.28082e-81
1.35154e-79
7.46448e-78
3.80033e-76
1.75821e-74
7.2516e-73
2.59639e-71
7.76293e-70
1.82283e-68
3.00992e-67
2.70456e-66
2.97076e-66
2.96896e-66
2.68755e-66
3.00485e-67
1.76641e-86
1.30214e-84
9.31856e-83
6.35778e-81
4.11157e-79
2.50284e-77
1.42174e-75
7.45381e-74
3.5553e-72
1.51349e-70
5.59932e-69
1.73166e-67
4.2099e-66
7.20249e-65
6.70242e-64
7.34104e-64
7.33689e-64
6.66175e-64
7.17781e-65
2.85284e-84
2.15419e-82
1.57961e-80
1.10542e-78
7.34108e-77
4.59459e-75
2.68674e-73
1.45178e-71
7.14538e-70
3.14231e-68
1.20228e-66
3.84943e-65
9.69852e-64
1.72088e-62
1.66024e-61
1.81322e-61
1.81227e-61
1.65055e-61
1.7121e-62
4.54925e-82
3.51977e-80
2.64629e-78
1.90097e-76
1.29748e-74
8.35647e-73
5.03467e-71
2.80633e-69
1.42647e-67
6.48614e-66
2.56881e-64
8.523e-63
2.22754e-61
4.1035e-60
4.10905e-59
4.47479e-59
4.4726e-59
4.08602e-59
4.07599e-60
7.15515e-80
5.67553e-78
4.37834e-76
3.23117e-74
2.26854e-72
1.50477e-70
9.34887e-69
5.38008e-67
2.82677e-65
1.33014e-63
5.45796e-62
1.87836e-60
5.09771e-59
9.76039e-58
1.01567e-56
1.10289e-56
1.10239e-56
1.01022e-56
9.6801e-58
1.10894e-77
9.02413e-76
7.14869e-74
5.42433e-72
3.92062e-70
2.6807e-68
1.71886e-66
1.02212e-64
5.55597e-63
2.70797e-61
1.15232e-59
4.11759e-58
1.16164e-56
2.31441e-55
2.50618e-54
2.71356e-54
2.71243e-54
2.49333e-54
2.29202e-55
1.69195e-75
1.41357e-73
1.1508e-71
8.98549e-70
6.69159e-68
4.7201e-66
3.12617e-64
1.92256e-62
1.08212e-60
5.46809e-59
2.41541e-57
8.97093e-56
2.6339e-54
5.46777e-53
6.17076e-52
6.662e-52
6.65945e-52
6.1406e-52
5.40734e-53
2.53867e-73
2.17919e-71
1.82465e-69
1.4672e-67
1.1267e-65
8.20565e-64
5.61831e-62
3.57644e-60
2.0863e-58
1.09404e-56
5.02179e-55
1.94076e-53
5.93765e-52
1.28621e-50
1.51557e-49
1.63144e-49
1.63087e-49
1.50853e-49
1.2703e-50
3.74153e-71
3.30236e-69
2.84607e-67
2.35865e-65
1.8692e-63
1.40668e-61
9.96513e-60
6.57185e-58
3.97694e-56
2.16637e-54
1.03443e-52
4.16498e-51
1.32972e-49
3.01085e-48
3.71214e-47
3.98412e-47
3.98285e-47
3.6958e-47
2.96975e-48
5.40917e-69
4.91258e-67
4.36106e-65
3.72778e-63
3.05109e-61
2.37454e-59
1.74192e-57
1.19119e-55
7.48511e-54
4.24e-52
2.1086e-50
8.85725e-49
2.95573e-47
7.01006e-46
9.06682e-45
9.7018e-45
9.69902e-45
9.02914e-45
6.90547e-46
7.65906e-67
7.16251e-65
6.55425e-63
5.78286e-61
4.89208e-59
3.94051e-57
2.99596e-55
2.12638e-53
1.38883e-51
8.19024e-50
4.24768e-48
1.86439e-46
6.51587e-45
1.6227e-43
2.20876e-42
2.35615e-42
2.35554e-42
2.20012e-42
1.59639e-43
1.06024e-64
1.02164e-62
9.6435e-61
8.7888e-59
7.69053e-57
6.41656e-55
5.06058e-53
3.73141e-51
2.53597e-49
1.55886e-47
8.44387e-46
3.87982e-44
1.42346e-42
3.73368e-41
5.36933e-40
5.70936e-40
5.70804e-40
5.3496e-40
3.66809e-41
1.43193e-62
1.42264e-60
1.38611e-58
1.30579e-56
1.18278e-54
1.02303e-52
8.37708e-51
6.4235e-49
4.54792e-47
2.91815e-45
1.65378e-43
7.9726e-42
3.0795e-40
8.53923e-39
1.30364e-37
1.38161e-37
1.38133e-37
1.29916e-37
8.37668e-39
1.88229e-60
1.9293e-58
1.94154e-56
1.89189e-54
1.77522e-52
1.59308e-50
1.35566e-48
1.0822e-46
7.99253e-45
5.36183e-43
3.18581e-41
1.61573e-39
6.59362e-38
1.94178e-36
3.16549e-35
3.34324e-35
3.34265e-35
3.15535e-35
1.90166e-36
2.40159e-58
2.54091e-56
2.64262e-54
2.6653e-52
2.59266e-50
2.41599e-48
2.13867e-46
1.77949e-44
1.37295e-42
9.64821e-41
6.02528e-39
3.22535e-37
1.39664e-35
4.39272e-34
7.70056e-33
8.10367e-33
8.10242e-33
7.67769e-33
4.294e-34
2.9646e-56
3.23924e-54
3.48359e-52
3.63891e-50
3.67222e-48
3.55644e-46
3.27836e-44
2.84694e-42
2.29862e-40
1.69596e-38
1.11656e-36
6.33398e-35
2.92567e-33
9.89388e-32
1.87999e-30
1.971e-30
1.97074e-30
1.87484e-30
9.65219e-32
3.52748e-54
3.98204e-52
4.43038e-50
4.7959e-48
5.02454e-46
5.06183e-44
4.86452e-42
4.41559e-40
3.73842e-38
2.90383e-36
2.02287e-34
1.22203e-32
6.05928e-31
2.2202e-29
4.61045e-28
4.81521e-28
4.81467e-28
4.59893e-28
2.16163e-29
4.02801e-52
4.69931e-50
5.41128e-48
6.07359e-46
6.61064e-44
6.93398e-42
6.95593e-40
6.61127e-38
5.88344e-36
4.82697e-34
3.57376e-32
2.31258e-30
1.23993e-28
4.9625e-27
1.13453e-25
1.18043e-25
1.18032e-25
1.13198e-25
4.82334e-27
4.39139e-50
5.2958e-48
6.31337e-46
7.35062e-44
8.31735e-42
9.09231e-40
9.53445e-38
9.50767e-36
8.91846e-34
7.75865e-32
6.13739e-30
4.28304e-28
2.5026e-26
1.10223e-24
2.78999e-23
2.8923e-23
2.89208e-23
2.78444e-23
1.07018e-24
4.54289e-48
5.66315e-46
6.99076e-44
8.44613e-42
9.94147e-40
1.13377e-37
1.2447e-35
1.30521e-33
1.29476e-31
1.19985e-29
1.02025e-27
7.73461e-26
4.96169e-24
2.41914e-22
6.8112e-21
7.03667e-21
7.03626e-21
6.79944e-21
2.34831e-22
4.42672e-46
5.70312e-44
7.2895e-42
9.14078e-40
1.11978e-37
1.33359e-35
1.53528e-33
1.69724e-31
1.78717e-29
1.77333e-27
1.6315e-25
1.35315e-23
9.5881e-22
5.19955e-20
1.64161e-18
1.69028e-18
1.6902e-18
1.63919e-18
5.04866e-20
4.02688e-44
5.35876e-42
7.08952e-40
9.22615e-38
1.17669e-35
1.46467e-33
1.77109e-31
2.06965e-29
2.3226e-27
2.48109e-25
2.48538e-23
2.2685e-21
1.78391e-19
1.08348e-17
3.92411e-16
4.02587e-16
4.02574e-16
3.91922e-16
1.05149e-17
3.38233e-42
4.6443e-40
6.35444e-38
8.57761e-36
1.13883e-33
1.48233e-31
1.8853e-29
2.33472e-27
2.80313e-25
3.23972e-23
3.55167e-21
3.58302e-19
3.14484e-17
2.17836e-15
9.58478e-14
9.78946e-14
9.78925e-14
9.57463e-14
2.10684e-15
2.58736e-40
3.65916e-38
5.16942e-36
7.22839e-34
9.98143e-32
1.35823e-29
1.81803e-27
2.38997e-25
3.07859e-23
3.86259e-21
4.6487e-19
5.20387e-17
5.16439e-15
4.26901e-13
2.53836e-11
2.57837e-11
2.57834e-11
2.53617e-11
4.09992e-13
1.77138e-38
2.5724e-36
3.74147e-34
5.40476e-32
7.74364e-30
1.09947e-27
1.54688e-25
2.15765e-23
2.98236e-21
4.06327e-19
5.37321e-17
6.71968e-15
7.77496e-13
8.35844e-11
7.55227e-09
7.63074e-09
7.63069e-09
7.5479e-09
7.99609e-11
1.06115e-36
1.57446e-34
2.34568e-32
3.48243e-30
5.14975e-28
7.58903e-26
1.11639e-23
1.64353e-21
2.42451e-19
3.56839e-17
5.17414e-15
7.31711e-13
1.04032e-10
1.6081e-08
2.342e-06
2.3574e-06
2.3574e-06
2.34142e-06
1.56042e-08
5.39949e-35
8.11791e-33
1.22789e-30
1.85545e-28
2.8018e-26
4.23406e-24
6.42307e-22
9.82354e-20
1.51966e-17
2.3733e-15
3.71959e-13
5.94052e-11
1.06598e-08
2.4541e-06
0.000628266
0.000630707
0.000630707
0.000628263
2.46243e-06
2.24355e-33
3.37141e-31
5.098e-29
7.70236e-27
1.16281e-24
1.75595e-22
2.65921e-20
4.05548e-18
6.25416e-16
9.73856e-14
1.50688e-11
2.23117e-09
2.97413e-07
3.27384e-05
0.0026067
0.00263913
0.00263913
0.0026067
3.30324e-05
7.23259e-32
1.06226e-29
1.56419e-27
2.28907e-25
3.3205e-23
4.7571e-21
6.69341e-19
9.16814e-17
1.20599e-14
1.49388e-12
1.69673e-10
1.70585e-08
1.44795e-06
9.68744e-05
0.00454841
0.00464382
0.00464382
0.00454843
9.83189e-05
1.7041e-30
2.36595e-28
3.26067e-26
4.40664e-24
5.80088e-22
7.37476e-20
8.95823e-18
1.0262e-15
1.09119e-13
1.05654e-11
9.09635e-10
6.75357e-08
4.14574e-06
0.000197475
0.00653749
0.00673075
0.00673075
0.00653755
0.000201617
2.80674e-29
3.55436e-27
4.40977e-25
5.28436e-23
6.06925e-21
6.62123e-19
6.78993e-17
6.46573e-15
5.63535e-13
4.41742e-11
3.0466e-09
1.79606e-07
8.69242e-06
0.000324738
0.00841436
0.00873022
0.00873023
0.00841453
0.000333428
3.27991e-28
3.72709e-26
4.11006e-24
4.33306e-22
4.33478e-20
4.08008e-18
3.57811e-16
2.8905e-14
2.12192e-12
1.39219e-10
7.99316e-09
3.90504e-07
1.56059e-05
0.000480321
0.0102589
0.0107233
0.0107233
0.0102593
0.000495924
2.85298e-27
2.90087e-25
2.84496e-23
2.64989e-21
2.32782e-19
1.91326e-17
1.45776e-15
1.01851e-13
6.44072e-12
3.62733e-10
1.78224e-08
7.43239e-07
2.5306e-05
0.000663043
0.0120772
0.0127142
0.0127142
0.0120779
0.000688346
1.95018e-26
1.78329e-24
1.56635e-22
1.30048e-20
1.01396e-18
7.36828e-17
4.94669e-15
3.0362e-13
1.68232e-11
8.2833e-10
3.55158e-08
1.29062e-06
3.8258e-05
0.000872806
0.0138796
0.0147129
0.014713
0.0138809
0.000911061
1.0839e-25
8.99561e-24
7.15232e-22
5.35682e-20
3.75527e-18
2.44601e-16
1.46768e-14
8.03019e-13
3.95678e-11
1.72883e-09
6.56585e-08
2.11038e-06
5.52834e-05
0.00111475
0.0157128
0.0167702
0.0167703
0.0157149
0.00117003
4.92807e-25
3.73117e-23
2.7034e-21
1.84141e-19
1.1718e-17
6.91657e-16
3.75482e-14
1.85597e-12
8.25084e-11
3.24867e-09
1.11073e-07
3.2116e-06
7.56592e-05
0.00137282
0.0174654
0.0187595
0.0187596
0.0174686
0.00144848
1.94999e-24
1.35488e-22
9.00475e-21
5.61823e-19
3.27052e-17
1.76373e-15
8.73813e-14
3.93766e-12
1.59441e-10
5.7134e-09
1.77667e-07
4.67038e-06
0.000100033
0.00165178
0.0191874
0.0207346
0.0207348
0.019192
0.00175181
6.89631e-24
4.42043e-22
2.71015e-20
1.55823e-18
8.35105e-17
4.14255e-15
1.88632e-13
7.80695e-12
2.90142e-10
9.53755e-09
2.71963e-07
6.55461e-06
0.000128747
0.00195185
0.0208894
0.0227062
0.0227065
0.0208959
0.00208059
2.22864e-23
1.32446e-21
7.52937e-20
4.01039e-18
1.98942e-16
9.12764e-15
3.84169e-13
1.46876e-11
5.04005e-10
1.52916e-08
4.0237e-07
8.94883e-06
0.000162276
0.00227425
0.0225832
0.0246867
0.0246871
0.0225922
0.00243653
6.63608e-23
3.67808e-21
1.95029e-19
9.68022e-18
4.471e-16
1.90835e-14
7.46649e-13
2.6518e-11
8.44806e-10
2.37846e-08
5.80554e-07
1.19763e-05
0.000201516
0.00262398
0.0242975
0.0267086
0.0267091
0.0243094
0.0028255
1.79616e-22
9.32555e-21
4.63442e-19
2.15471e-17
9.31723e-16
3.72142e-14
1.36187e-12
4.52217e-11
1.34647e-09
3.54199e-08
8.07681e-07
1.55666e-05
0.000244826
0.00298379
0.0259529
0.0286772
0.028678
0.0259685
0.00322862
4.56647e-22
2.22774e-20
1.04102e-18
4.54944e-17
1.84844e-15
6.93468e-14
2.38297e-12
7.42816e-11
2.07582e-09
5.1244e-08
1.09657e-06
1.98373e-05
0.000293025
0.00335908
0.0275823
0.0306297
0.0306308
0.0276021
0.0036521
1.10609e-21
5.08208e-20
2.23916e-18
9.22466e-17
3.53222e-15
1.24854e-13
4.04126e-12
1.18635e-10
3.12168e-09
7.25577e-08
1.46201e-06
2.49115e-05
0.000346842
0.00375356
0.0292062
0.0325896
0.032591
0.0292311
0.00410041
2.57525e-21
1.114e-19
4.63555e-18
1.80489e-16
6.53281e-15
2.18251e-13
6.67548e-12
1.85134e-10
4.60129e-09
1.01004e-07
1.92206e-06
3.09372e-05
0.000407162
0.00417164
0.0308449
0.0345805
0.0345823
0.0308758
0.0045788
5.90876e-21
2.36188e-19
9.20781e-18
3.37987e-16
1.157e-14
3.66151e-13
1.06161e-11
2.79174e-10
6.57996e-09
1.36981e-07
2.47245e-06
3.7758e-05
0.00047181
0.00459674
0.0324369
0.0365269
0.0365293
0.0324747
0.00506855
1.61207e-20
5.47987e-19
1.9004e-17
6.37873e-16
2.03124e-14
6.03979e-13
1.6546e-11
4.12381e-10
9.22714e-09
1.82531e-07
3.13264e-06
4.55167e-05
0.000541622
0.00503347
0.0339991
0.0384504
0.0384533
0.0340446
0.0055751
7.30615e-20
1.90652e-18
5.233e-17
1.44837e-15
3.97222e-14
1.05442e-12
2.64531e-11
6.13799e-10
1.29155e-08
2.41713e-07
3.93877e-06
5.44656e-05
0.000617955
0.0054828
0.0345455
0.0393765
0.0393802
0.0346
0.00610076
5.20534e-19
1.15328e-17
2.57409e-16
5.60833e-15
1.2025e-13
2.54374e-12
5.26993e-11
1.05046e-09
1.96531e-08
3.35603e-07
5.07944e-06
6.60044e-05
0.000708885
0.00595852
0.0342847
0.0396312
0.0396359
0.0343507
0.00666741
3.99971e-18
8.46899e-17
1.76233e-15
3.45553e-14
6.38952e-13
1.11687e-11
1.85177e-10
2.91909e-09
4.36509e-08
6.12458e-07
7.88753e-06
9.01965e-05
0.000875715
0.0067509
0.0351279
0.0422409
0.0422482
0.035218
0.00762659
2.73824e-17
5.74537e-16
1.17765e-14
2.2525e-13
4.00307e-12
6.58102e-11
9.96375e-10
1.38304e-08
1.75187e-07
2.01386e-06
2.08369e-05
0.000191231
0.00151396
0.00975943
0.0437099
0.0611371
0.0611559
0.0439009
0.0112733
1.55228e-16
3.25332e-15
6.6522e-14
1.26664e-12
2.23362e-11
3.62531e-10
5.37715e-09
7.2277e-08
8.71757e-07
9.32301e-06
8.71053e-05
0.00069738
0.00465477
0.0247139
0.0932403
0.166887
0.166965
0.0939366
0.0293683
6.90094e-16
1.44714e-14
2.9597e-13
5.63419e-12
9.92597e-11
1.60774e-09
2.37576e-08
3.17333e-07
3.78862e-06
3.98711e-05
0.000363372
0.00280167
0.0176913
0.0870732
0.305182
0.617517
0.617841
0.30798
0.104764
2.24688e-15
4.71576e-14
9.65185e-13
1.8385e-11
3.24039e-10
5.24948e-09
7.75539e-08
1.03505e-06
1.23361e-05
0.000129426
0.00117354
0.00897459
0.0559584
0.270496
0.93222
1.95042
1.95147
0.941185
0.326454
4.86384e-15
1.0215e-13
2.09199e-12
3.98715e-11
7.03112e-10
1.13957e-08
1.68415e-07
2.24813e-06
2.67933e-05
0.000281
0.00254564
0.0194356
0.120853
0.581855
1.99841
4.21765
4.21992
2.01782
0.702706
6.42071e-15
1.34841e-13
2.76138e-12
5.26269e-11
9.27993e-10
1.50394e-08
2.22245e-07
2.96633e-06
3.53467e-05
0.000370615
0.00335628
0.025611
0.159125
0.765248
2.62548
5.55055
5.55354
2.65106
0.924369
6.95643e-15
1.46082e-13
2.99139e-12
5.70071e-11
1.00517e-09
1.62893e-08
2.40699e-07
3.21242e-06
3.8276e-05
0.000401286
0.0036335
0.0277203
0.172171
0.827545
2.83749
6.00117
6.0044
2.86517
0.999713
7.08619e-15
1.48807e-13
3.0472e-12
5.8071e-11
1.02394e-09
1.65936e-08
2.45199e-07
3.2725e-06
3.89918e-05
0.000408784
0.00370121
0.028234
0.175326
0.842408
2.88711
6.10689
6.11019
2.9153
1.01773
7.11281e-15
1.49371e-13
3.05888e-12
5.82959e-11
1.02795e-09
1.66593e-08
2.46179e-07
3.28568e-06
3.91498e-05
0.000410441
0.0037161
0.0283452
0.175984
0.845292
2.8958
6.12575
6.12906
2.92411
1.02127
7.12127e-15
1.49556e-13
3.06281e-12
5.83735e-11
1.02936e-09
1.66828e-08
2.46535e-07
3.29052e-06
3.92077e-05
0.000411042
0.00372134
0.0283819
0.176175
0.845921
2.89682
6.12834
6.13165
2.92516
1.02209
7.12902e-15
1.49725e-13
3.06637e-12
5.84434e-11
1.03062e-09
1.67036e-08
2.46844e-07
3.29462e-06
3.92557e-05
0.000411524
0.00372537
0.0284083
0.176296
0.846206
2.89674
6.12854
6.13186
2.92511
1.0225
7.13948e-15
1.49947e-13
3.07095e-12
5.85307e-11
1.03216e-09
1.67282e-08
2.47201e-07
3.29923e-06
3.93079e-05
0.000412032
0.00372947
0.028434
0.176407
0.846434
2.89652
6.12843
6.13175
2.92491
1.02284
7.15339e-15
1.50235e-13
3.07676e-12
5.8639e-11
1.03401e-09
1.67572e-08
2.47611e-07
3.3044e-06
3.93651e-05
0.000412573
0.00373369
0.0284596
0.176512
0.846627
2.89625
6.12823
6.13155
2.92467
1.02314
7.16944e-15
1.50561e-13
3.08321e-12
5.8757e-11
1.036e-09
1.67877e-08
2.48032e-07
3.3096e-06
3.94212e-05
0.000413091
0.00373761
0.0284823
0.176598
0.846742
2.89583
6.12782
6.13114
2.92427
1.02334
7.183e-15
1.50833e-13
3.08851e-12
5.88528e-11
1.03759e-09
1.68117e-08
2.4836e-07
3.31357e-06
3.94631e-05
0.000413466
0.00374031
0.0284964
0.176637
0.846685
2.89503
6.12692
6.13025
2.92349
1.02332
7.18944e-15
1.50962e-13
3.09101e-12
5.88975e-11
1.03832e-09
1.68227e-08
2.48507e-07
3.31531e-06
3.94808e-05
0.00041361
0.00374116
0.0284984
0.176616
0.846417
2.89381
6.12545
6.12878
2.92227
1.02303
7.19143e-15
1.51001e-13
3.09176e-12
5.89109e-11
1.03854e-09
1.68258e-08
2.48547e-07
3.31572e-06
3.94839e-05
0.000413617
0.0037409
0.0284931
0.176559
0.846024
2.89236
6.12366
6.12699
2.92081
1.02258
7.19183e-15
1.51009e-13
3.0919e-12
5.89132e-11
1.03857e-09
1.68261e-08
2.48547e-07
3.31563e-06
3.94813e-05
0.000413567
0.00374016
0.0284846
0.176484
0.845577
2.89081
6.12174
6.12506
2.91926
1.02206
7.19165e-15
1.51004e-13
3.09179e-12
5.89105e-11
1.03851e-09
1.68249e-08
2.48523e-07
3.31523e-06
3.94748e-05
0.000413474
0.00373901
0.0284729
0.176392
0.845063
2.88911
6.11948
6.12281
2.91754
1.02145
7.18972e-15
1.50959e-13
3.09077e-12
5.88894e-11
1.03811e-09
1.68178e-08
2.48408e-07
3.31353e-06
3.94523e-05
0.000413207
0.00373625
0.0284489
0.176224
0.844197
2.88625
6.11479
6.11811
2.91466
1.02041
7.17679e-15
1.50658e-13
3.08408e-12
5.87522e-11
1.03553e-09
1.67736e-08
2.47721e-07
3.3039e-06
3.93322e-05
0.000411892
0.00372383
0.0283502
0.175591
0.841105
2.8758
6.09392
6.09723
2.90409
1.01666
7.10637e-15
1.49021e-13
3.04764e-12
5.80068e-11
1.02156e-09
1.65349e-08
2.4403e-07
3.25267e-06
3.87007e-05
0.000405078
0.00366063
0.0278588
0.172497
0.826136
2.82456
5.98633
5.98954
2.85224
0.998443
6.81251e-15
1.42177e-13
2.89523e-12
5.48863e-11
9.63044e-10
1.55351e-08
2.28571e-07
3.03822e-06
3.60609e-05
0.000376645
0.00339753
0.0258181
0.159678
0.764126
2.61145
5.53437
5.53719
2.63659
0.922953
5.95887e-15
1.22269e-13
2.45129e-12
4.57865e-11
7.9222e-10
1.26136e-08
1.83359e-07
2.41056e-06
2.83297e-05
0.00029333
0.00262628
0.0198337
0.122064
0.582028
1.98455
4.20143
4.20308
2.00223
0.701288
4.52584e-15
8.88096e-14
1.70445e-12
3.04629e-11
5.04298e-10
7.68516e-09
1.07025e-07
1.35e-06
1.52563e-05
0.000152344
0.00132027
0.00969328
0.0582858
0.273023
0.919838
1.93547
1.93515
0.924883
0.325185
3.67191e-15
6.88923e-14
1.26028e-12
2.13575e-11
3.33358e-10
4.76148e-09
6.17772e-08
7.21829e-07
7.51886e-06
6.89671e-05
0.000548517
0.00370595
0.0206611
0.0909055
0.292958
0.602547
0.601057
0.290549
0.10349
3.37696e-15
6.20217e-14
1.10723e-12
1.82231e-11
2.74567e-10
3.75679e-09
4.62405e-08
5.06302e-07
4.8662e-06
4.04062e-05
0.000284404
0.00165927
0.00781829
0.0288573
0.0798803
0.150616
0.14873
0.0749284
0.0279385
3.30437e-15
6.03328e-14
1.06963e-12
1.74534e-11
2.60131e-10
3.51008e-09
4.24251e-08
4.5337e-07
4.21483e-06
3.3397e-05
0.000219668
0.00115878
0.00468966
0.01383
0.0286982
0.0430693
0.0410874
0.023129
0.00962726
3.28773e-15
5.9948e-14
1.06109e-12
1.72788e-11
2.56858e-10
3.45412e-09
4.15592e-08
4.41359e-07
4.06723e-06
3.18145e-05
0.000205158
0.00104795
0.00401013
0.010659
0.0183246
0.0222582
0.0202567
0.0126239
0.00574928
3.27886e-15
5.97547e-14
1.057e-12
1.71982e-11
2.55393e-10
3.42976e-09
4.11918e-08
4.36391e-07
4.0078e-06
3.11968e-05
0.000199703
0.00100829
0.00378273
0.00969419
0.0155747
0.0176422
0.0156358
0.00983442
0.00455703
3.26028e-15
5.93887e-14
1.04994e-12
1.70716e-11
2.53292e-10
3.39774e-09
4.07478e-08
4.30851e-07
3.94652e-06
3.06065e-05
0.000194874
0.00097583
0.00361195
0.00904119
0.0139617
0.0154425
0.0134386
0.00820971
0.00376059
3.19173e-15
5.81125e-14
1.02681e-12
1.66838e-11
2.47323e-10
3.31401e-09
3.96872e-08
4.18854e-07
3.827e-06
2.95764e-05
0.000187369
0.00093108
0.00340341
0.00833318
0.0123928
0.0134512
0.0114786
0.00671344
0.00299917
2.93624e-15
5.3439e-14
9.43766e-13
1.53252e-11
2.27008e-10
3.03882e-09
3.63458e-08
3.82954e-07
3.49119e-06
2.68978e-05
0.000169637
0.000837195
0.00302561
0.007257
0.0103993
0.0110697
0.00924318
0.00512584
0.00220582
2.21726e-15
4.034e-14
7.12146e-13
1.15584e-11
1.71108e-10
2.28878e-09
2.73484e-08
2.8779e-07
2.61922e-06
2.01328e-05
0.000126546
0.000621305
0.00222604
0.00525408
0.00730333
0.00764232
0.00625575
0.00329183
0.00135664
1.02112e-15
1.85621e-14
3.2741e-13
5.30929e-12
7.85235e-11
1.04929e-09
1.25242e-08
1.31633e-07
1.19635e-06
9.18059e-06
5.75851e-05
0.000281928
0.00100579
0.00235639
0.00323064
0.00335345
0.0027187
0.00139315
0.000560655
3.12593e-16
5.67622e-15
1.00016e-13
1.62013e-12
2.39352e-11
3.1948e-10
3.80881e-09
3.99827e-08
3.62908e-07
2.78092e-06
1.7415e-05
8.50947e-05
0.000302789
0.000706533
0.00096203
0.000994514
0.00080226
0.000405479
0.000161107
7.00288e-17
1.27013e-15
2.23544e-14
3.61698e-13
5.33739e-12
7.11581e-11
8.47317e-10
8.88369e-09
8.05308e-08
6.16271e-07
3.85374e-06
1.88002e-05
6.67666e-05
0.000155386
0.000210734
0.000217326
0.000174796
8.76397e-05
3.45613e-05
1.22676e-17
2.22228e-16
3.90667e-15
6.31357e-14
9.30551e-13
1.23912e-11
1.47368e-10
1.54317e-09
1.39712e-08
1.06777e-07
6.66808e-07
3.24828e-06
1.15173e-05
2.67517e-05
3.61862e-05
3.72592e-05
2.99089e-05
1.49189e-05
5.85545e-06
1.75816e-18
3.18097e-17
5.58533e-16
9.01562e-15
1.3272e-13
1.76514e-12
2.09671e-11
2.19285e-10
1.98282e-09
1.51348e-08
9.4391e-08
4.59193e-07
1.6258e-06
3.77027e-06
5.09049e-06
5.23551e-06
4.19674e-06
2.08599e-06
8.16101e-07
2.12859e-19
3.84633e-18
6.74547e-17
1.08751e-15
1.59899e-14
2.12402e-13
2.5199e-12
2.63219e-11
2.37711e-10
1.81215e-09
1.12874e-08
5.48399e-08
1.93905e-07
4.49045e-07
6.05434e-07
6.22147e-07
4.98166e-07
2.46979e-07
9.64081e-08
2.22904e-20
4.02278e-19
7.04639e-18
1.13465e-16
1.66627e-15
2.21068e-14
2.61948e-13
2.73283e-12
2.46494e-11
1.87676e-10
1.16752e-09
5.66522e-09
2.0006e-08
4.62719e-08
6.23172e-08
6.39935e-08
5.11961e-08
2.53325e-08
9.87249e-09
2.05579e-21
3.70543e-20
6.48265e-19
1.0426e-17
1.52923e-16
2.02639e-15
2.39817e-14
2.49885e-13
2.25111e-12
1.71183e-11
1.0636e-10
5.1546e-10
1.81806e-09
4.20013e-09
5.65134e-09
5.80005e-09
4.63677e-09
2.29086e-09
8.91718e-10
1.69317e-22
3.04797e-21
5.32598e-20
8.55538e-19
1.25333e-17
1.65876e-16
1.96068e-15
2.0405e-14
1.83594e-13
1.3944e-12
8.65312e-12
4.18852e-11
1.47557e-10
3.40519e-10
4.57813e-10
4.69632e-10
3.75205e-10
1.85152e-10
7.2006e-11
1.17517e-23
2.11302e-22
3.68813e-21
5.91778e-20
8.65953e-19
1.14478e-17
1.35162e-16
1.40504e-15
1.26275e-14
9.57976e-14
5.93812e-13
2.87113e-12
1.01038e-11
2.3294e-11
3.12976e-11
3.20929e-11
2.56268e-11
1.26343e-11
4.91041e-12
)
;

boundaryField
{
    top
    {
        type            zeroGradient;
    }
    left
    {
        type            fixedValue;
        value           uniform 0;
    }
    bottom
    {
        type            zeroGradient;
    }
    right
    {
        type            zeroGradient;
    }
    frontAndBack
    {
        type            empty;
    }
}


// ************************************************************************* //
