/*--------------------------------*- C++ -*----------------------------------*\
| =========                 |                                                 |
| \\      /  F ield         | OpenFOAM: The Open Source CFD Toolbox           |
|  \\    /   O peration     | Version:  v1806                                 |
|   \\  /    A nd           | Web:      www.OpenFOAM.com                      |
|    \\/     M anipulation  |                                                 |
\*---------------------------------------------------------------------------*/
FoamFile
{
    version     2.0;
    format      ascii;
    class       volScalarField;
    location    "0.05";
    object      T;
}
// * * * * * * * * * * * * * * * * * * * * * * * * * * * * * * * * * * * * * //

dimensions      [0 0 0 1 0 0 0];


internalField   nonuniform List<scalar> 
1881
(
-3.53522e-33
-3.8254e-33
2.73177e-33
2.53496e-31
7.98174e-30
2.19681e-28
5.38516e-27
1.17085e-25
2.23844e-24
3.71547e-23
5.26002e-22
6.19538e-21
5.8568e-20
4.20624e-19
2.09186e-18
5.99365e-18
5.99997e-18
2.10676e-18
4.83207e-19
-2.29967e-32
-2.63268e-32
-9.3216e-32
-1.85897e-30
-4.54859e-29
-1.02855e-27
-2.10336e-26
-3.84583e-25
-6.20323e-24
-8.67817e-23
-1.03002e-21
-1.0069e-20
-7.77616e-20
-4.45977e-19
-1.72158e-18
-3.78921e-18
-3.76173e-18
-1.6906e-18
-5.06573e-19
6.08778e-33
4.85438e-33
-1.71735e-31
-5.58306e-30
-1.52349e-28
-3.77811e-27
-8.48512e-26
-1.71012e-24
-3.05722e-23
-4.77681e-22
-6.39875e-21
-7.1603e-20
-6.45258e-19
-4.43087e-18
-2.11435e-17
-5.85352e-17
-5.85393e-17
-2.12146e-17
-5.07896e-18
3.7509e-31
4.10742e-31
5.90948e-31
3.04833e-30
2.66809e-29
-3.39627e-28
-2.83309e-26
-9.64596e-25
-2.3963e-23
-4.75729e-22
-7.69526e-21
-1.00656e-19
-1.03661e-18
-7.99676e-18
-4.22201e-17
-1.26648e-16
-1.26927e-16
-4.27187e-17
-9.20817e-18
9.84784e-31
1.07514e-30
3.33504e-30
6.48811e-29
1.61159e-27
3.7099e-26
7.74028e-25
1.4479e-23
2.39776e-22
3.45988e-21
4.2619e-20
4.36064e-19
3.56704e-18
2.20426e-17
9.38866e-17
2.32835e-16
2.32111e-16
9.32246e-17
2.51553e-17
-2.88484e-30
-3.12674e-30
1.37961e-30
1.53411e-28
4.34905e-27
1.09431e-25
2.48958e-24
5.07986e-23
9.19086e-22
1.45305e-20
1.96931e-19
2.22961e-18
2.03301e-17
1.41261e-16
6.81943e-16
1.90732e-15
1.90796e-15
6.84901e-16
1.61985e-16
-2.30196e-29
-2.46281e-29
-3.36044e-29
-1.94902e-28
-3.19608e-27
-4.73459e-26
-4.10268e-25
4.1356e-24
2.85633e-22
7.65603e-21
1.44266e-19
2.07345e-18
2.27792e-17
1.84234e-16
1.00793e-15
3.10065e-15
3.10906e-15
1.0221e-15
2.12282e-16
-2.25727e-29
-2.27393e-29
-8.81683e-29
-1.99089e-27
-5.0435e-26
-1.17511e-24
-2.48325e-23
-4.71135e-22
-7.92677e-21
-1.16452e-19
-1.46429e-18
-1.53443e-17
-1.2909e-16
-8.24683e-16
-3.6522e-15
-9.43564e-15
-9.41854e-15
-3.64106e-15
-9.42911e-16
2.73284e-28
2.94267e-28
1.99306e-28
-3.71923e-27
-1.13774e-25
-2.90147e-24
-6.66994e-23
-1.37429e-21
-2.50978e-20
-4.004e-19
-5.47505e-18
-6.25349e-17
-5.75218e-16
-4.03171e-15
-1.96285e-14
-5.53046e-14
-5.53325e-14
-1.97257e-14
-4.6238e-15
1.09478e-27
1.14245e-27
1.44624e-27
7.62111e-27
1.36722e-25
2.486e-24
3.7555e-23
4.10414e-22
1.43091e-21
-6.66483e-20
-2.0548e-18
-3.57814e-17
-4.36504e-16
-3.77263e-15
-2.15949e-14
-6.84467e-14
-6.86702e-14
-2.19541e-14
-4.34908e-15
-8.3605e-28
-1.0193e-27
5.11619e-28
5.28948e-26
1.40293e-24
3.29791e-23
7.02463e-22
1.34434e-20
2.28368e-19
3.39121e-18
4.31606e-17
4.58522e-16
3.91826e-15
2.54816e-14
1.1512e-13
3.03377e-13
3.0301e-13
1.14994e-13
2.91619e-14
-1.77369e-26
-1.88339e-26
-1.73147e-26
7.72242e-26
2.77409e-24
7.15706e-23
1.65604e-21
3.43274e-20
6.3055e-19
1.01168e-17
1.39116e-16
1.59789e-15
1.47808e-14
1.04182e-13
5.10009e-13
1.44392e-12
1.44478e-12
5.12699e-13
1.19475e-13
-3.7432e-26
-3.75396e-26
-4.42209e-26
-2.22318e-25
-4.14726e-24
-8.01491e-23
-1.34358e-21
-1.84419e-20
-1.82699e-19
-6.42334e-19
2.02494e-17
5.43924e-16
7.73106e-15
7.23201e-14
4.34256e-13
1.41729e-12
1.42257e-12
4.42469e-13
8.33607e-14
1.40171e-25
1.55112e-25
1.31562e-25
-1.15531e-24
-3.48165e-23
-8.2523e-22
-1.76504e-20
-3.39295e-19
-5.79291e-18
-8.65177e-17
-1.10832e-15
-1.18619e-14
-1.02221e-13
-6.71128e-13
-3.06398e-12
-8.15786e-12
-8.15047e-12
-3.06379e-12
-7.68446e-13
8.88286e-25
9.2759e-25
9.08035e-25
-1.27928e-24
-6.40789e-23
-1.66701e-21
-3.86102e-20
-8.01096e-19
-1.47325e-17
-2.36711e-16
-3.26038e-15
-3.7519e-14
-3.4778e-13
-2.4569e-12
-1.20561e-11
-3.4208e-11
-3.4229e-11
-1.21202e-11
-2.81697e-12
5.37903e-25
4.36435e-25
4.39306e-25
4.42058e-24
9.67591e-23
1.91483e-21
3.28598e-20
4.70177e-19
5.14009e-18
3.1215e-17
-2.21801e-16
-9.51781e-15
-1.48507e-13
-1.44636e-12
-8.88064e-12
-2.93629e-11
-2.94744e-11
-9.0524e-12
-1.66484e-12
-1.0226e-23
-1.10091e-23
-1.10853e-23
1.69719e-23
7.66856e-22
1.83903e-20
3.93685e-19
7.57352e-18
1.29451e-16
1.93636e-15
2.48554e-14
2.66686e-13
2.30525e-12
1.51902e-11
6.96385e-11
1.86187e-10
1.86044e-10
6.96664e-11
1.73978e-11
-3.42065e-23
-3.48858e-23
-3.40055e-23
1.57831e-23
1.41663e-21
3.69079e-20
8.50187e-19
1.75556e-17
3.21562e-16
5.14942e-15
7.07319e-14
8.12143e-13
7.51497e-12
5.302e-11
2.59936e-10
7.37177e-10
7.37593e-10
2.6127e-10
6.07738e-11
4.02923e-23
4.86279e-23
5.76317e-23
-5.0002e-24
-1.65476e-21
-3.35486e-20
-5.55936e-19
-7.42785e-18
-6.85524e-17
-1.04835e-16
1.12001e-14
2.64067e-13
3.61856e-12
3.3287e-11
1.98065e-10
6.43219e-10
6.45323e-10
2.01381e-10
3.8224e-11
5.35657e-22
5.65333e-22
5.8481e-22
4.7597e-23
-1.47287e-20
-3.61211e-19
-7.71654e-18
-1.48019e-16
-2.52314e-15
-3.76468e-14
-4.82118e-13
-5.16189e-12
-4.45333e-11
-2.92939e-10
-1.34094e-09
-3.58108e-09
-3.57835e-09
-1.34152e-09
-3.35576e-10
8.84186e-22
8.54861e-22
7.70972e-22
-3.72029e-22
-3.00358e-20
-7.69951e-19
-1.75347e-17
-3.58531e-16
-6.51041e-15
-1.03456e-13
-1.41137e-12
-1.61067e-11
-1.48234e-10
-1.04084e-09
-5.08196e-09
-1.43671e-08
-1.43738e-08
-5.10603e-09
-1.19273e-09
-4.28769e-21
-4.72311e-21
-5.28393e-21
-4.97437e-21
1.39116e-20
3.41084e-19
4.42715e-18
2.50539e-17
-6.48714e-16
-2.66895e-14
-5.74281e-13
-8.8223e-12
-1.00996e-10
-8.40616e-10
-4.69826e-09
-1.46763e-08
-1.47114e-08
-4.7575e-09
-9.63454e-10
-2.14424e-20
-2.21496e-20
-2.26856e-20
-1.36021e-20
2.38295e-19
6.10403e-18
1.29736e-16
2.47112e-15
4.18208e-14
6.19438e-13
7.87334e-12
8.36449e-11
7.15818e-10
4.66908e-09
2.11893e-08
5.61426e-08
5.60922e-08
2.11894e-08
5.3498e-09
-2.36663e-21
1.10584e-21
6.7649e-21
3.38148e-20
6.14056e-19
1.47429e-17
3.30187e-16
6.66307e-15
1.19561e-13
1.87935e-12
2.53828e-11
2.87013e-10
2.61911e-09
1.82481e-08
8.84811e-08
2.48758e-07
2.48838e-07
8.88524e-08
2.09065e-08
2.44842e-19
2.61281e-19
2.82969e-19
3.02662e-19
3.17434e-19
2.27457e-18
9.08935e-17
2.73133e-15
6.44188e-14
1.24417e-12
1.98094e-11
2.56771e-10
2.63204e-09
2.02732e-08
1.07114e-07
3.21979e-07
3.22484e-07
1.08081e-07
2.32141e-08
6.14886e-19
6.12647e-19
6.01605e-19
4.48785e-19
-3.12184e-18
-8.4605e-17
-1.7791e-15
-3.34341e-14
-5.57804e-13
-8.13715e-12
-1.01746e-10
-1.06184e-09
-8.91138e-09
-5.68931e-08
-2.52282e-07
-6.53706e-07
-6.52849e-07
-2.51962e-07
-6.52157e-08
-1.3342e-18
-1.52708e-18
-1.8012e-18
-2.46056e-18
-1.25285e-17
-2.48951e-16
-5.44109e-15
-1.08161e-13
-1.91434e-12
-2.97044e-11
-3.96314e-10
-4.42959e-09
-3.998e-08
-2.75685e-07
-1.32409e-06
-3.69362e-06
-3.69417e-06
-1.32881e-06
-3.15817e-07
-9.96718e-18
-1.03671e-17
-1.08836e-17
-1.15996e-17
-1.84496e-17
-1.97864e-16
-4.66983e-15
-1.03478e-13
-2.01893e-12
-3.41873e-11
-4.93751e-10
-5.93436e-09
-5.7271e-08
-4.20052e-07
-2.13323e-06
-6.22711e-06
-6.23307e-06
-2.14722e-06
-4.80843e-07
-7.66248e-18
-6.35758e-18
-4.5026e-18
-8.9014e-19
3.86062e-17
8.70831e-16
1.76628e-14
3.21931e-13
5.19316e-12
7.29156e-11
8.72358e-10
8.64405e-09
6.81806e-08
4.03692e-07
1.63383e-06
3.83127e-06
3.81871e-06
1.62299e-06
4.6348e-07
9.23432e-17
9.95526e-17
1.09153e-16
1.24472e-16
2.71226e-16
3.52546e-15
7.37054e-14
1.44018e-12
2.51002e-11
3.83705e-10
5.04535e-09
5.55941e-08
4.94836e-07
3.36634e-06
1.59624e-05
4.40479e-05
4.40452e-05
1.60073e-05
3.85673e-06
2.80326e-16
2.80585e-16
2.80369e-16
2.84523e-16
4.59375e-16
4.99224e-15
1.08942e-13
2.24587e-12
4.12155e-11
6.6218e-10
9.13632e-09
1.05489e-07
9.82575e-07
6.9844e-06
3.45195e-05
9.86461e-05
9.86988e-05
3.46898e-05
7.99533e-06
-4.14056e-16
-4.93809e-16
-5.98232e-16
-7.21535e-16
-1.04129e-15
-5.1384e-15
-7.58581e-14
-1.15342e-12
-1.46218e-11
-1.3912e-10
-7.04533e-10
4.82472e-09
1.56695e-07
1.84649e-06
1.23938e-05
4.29877e-05
4.31345e-05
1.26141e-05
2.0967e-06
-3.84507e-15
-4.00454e-15
-4.20541e-15
-4.45847e-15
-6.05573e-15
-3.91379e-14
-7.37383e-13
-1.4065e-11
-2.40242e-10
-3.59905e-09
-4.63607e-08
-5.00237e-07
-4.3582e-06
-2.9011e-05
-0.000134635
-0.000364546
-0.000364405
-0.000134866
-3.32527e-05
-3.07059e-15
-2.48334e-15
-1.72099e-15
-9.49813e-16
-2.87625e-15
-7.2806e-14
-1.63902e-12
-3.2767e-11
-5.82582e-10
-9.08597e-09
-1.21926e-07
-1.37156e-06
-1.24673e-05
-8.66285e-05
-0.00041939
-0.00117848
-0.00117874
-0.000420976
-9.9189e-05
3.56231e-14
3.85426e-14
4.21938e-14
4.59831e-14
4.83007e-14
7.29165e-15
-1.10018e-12
-2.54447e-11
-4.94512e-10
-8.3375e-09
-1.20053e-07
-1.44024e-06
-1.38873e-05
-0.00010185
-0.000517553
-0.00151227
-0.00151349
-0.000520617
-0.000116443
9.96047e-14
9.84188e-14
9.66666e-14
9.42874e-14
9.86276e-14
2.78274e-13
4.03309e-12
7.26713e-11
1.18162e-09
1.67782e-08
2.03643e-07
2.05548e-06
1.66053e-05
0.000101445
0.000427658
0.0010519
0.00104984
0.000426412
0.000116609
-2.09289e-13
-2.45103e-13
-2.89625e-13
-3.36824e-13
-3.59417e-13
2.73038e-13
1.49943e-11
3.01163e-10
5.23347e-09
7.96891e-08
1.04436e-06
1.14779e-05
0.000101974
0.00069295
0.00328452
0.00906564
0.00906496
0.00329355
0.000793831
-1.48767e-12
-1.5413e-12
-1.60372e-12
-1.66025e-12
-1.66492e-12
-5.78617e-13
2.44209e-11
5.24506e-10
9.41296e-09
1.47778e-07
1.99635e-06
2.26127e-05
0.00020701
0.00144884
0.00706452
0.0199763
0.0199818
0.00709234
0.00165806
-3.29351e-13
-1.17675e-14
3.84995e-13
8.3285e-13
1.34812e-12
2.35339e-12
1.46214e-11
2.8016e-10
5.53408e-09
9.54834e-08
1.40257e-06
1.71166e-05
0.000167519
0.00124473
0.00639714
0.0188596
0.0188753
0.00643527
0.00142139
1.63998e-11
1.76353e-11
1.9103e-11
2.06077e-11
2.20056e-11
2.06802e-11
-3.65426e-11
-1.12336e-09
-1.90188e-08
-2.7605e-07
-3.43315e-06
-3.56684e-05
-0.000298311
-0.00190014
-0.00841717
-0.021816
-0.0217944
-0.00841644
-0.00218235
3.39328e-11
3.2544e-11
3.06899e-11
2.83073e-11
2.496e-11
1.21385e-11
-1.901e-10
-4.02513e-09
-7.00014e-08
-1.06588e-06
-1.39752e-05
-0.000153734
-0.00136772
-0.00931113
-0.0442311
-0.122357
-0.12235
-0.0443549
-0.010665
-1.27777e-10
-1.45119e-10
-1.65823e-10
-1.87983e-10
-2.1205e-10
-2.52293e-10
-6.19717e-10
-7.39514e-09
-1.2612e-07
-1.95606e-06
-2.61853e-05
-0.000294168
-0.00267278
-0.0185794
-0.0900529
-0.253453
-0.253494
-0.090371
-0.0212612
-6.37752e-10
-6.54933e-10
-6.72896e-10
-6.87527e-10
-6.98256e-10
-7.16921e-10
-1.02642e-09
-7.36873e-09
-1.22793e-07
-1.95938e-06
-2.70191e-05
-0.000312281
-0.0029151
-0.020788
-0.103155
-0.296003
-0.29612
-0.1036
-0.0237598
2.84033e-10
4.56756e-10
6.64986e-10
8.96209e-10
1.15139e-09
1.43902e-09
1.89847e-09
4.73214e-09
3.95256e-08
4.26029e-07
3.65938e-06
1.90118e-05
-2.26023e-05
-0.00146819
-0.0130885
-0.0509241
-0.0511026
-0.0133368
-0.001609
8.03263e-09
8.57542e-09
9.18921e-09
9.80717e-09
1.04214e-08
1.108e-08
1.29208e-08
3.74864e-08
4.4463e-07
6.4779e-06
8.33164e-05
0.000900444
0.00787034
0.0526398
0.24579
0.669889
0.669719
0.246321
0.0603413
1.22056e-08
1.12197e-08
9.97238e-09
8.4648e-09
6.67516e-09
4.70781e-09
5.26815e-09
6.06145e-08
1.06038e-06
1.62268e-05
0.000213378
0.00235469
0.0210269
0.143757
0.686076
1.90631
1.90626
0.688049
0.1646
-7.0375e-08
-7.87638e-08
-8.83794e-08
-9.854e-08
-1.09182e-07
-1.20056e-07
-1.26499e-07
-3.92453e-08
1.67231e-06
2.7947e-05
0.000372447
0.00414641
0.0373442
0.257501
1.23913
3.46771
3.46788
1.24298
0.294687
-2.79743e-07
-2.84608e-07
-2.8877e-07
-2.90908e-07
-2.90594e-07
-2.87185e-07
-2.73936e-07
-1.2651e-07
2.29227e-06
3.91616e-05
0.000524459
0.00586623
0.053086
0.367787
1.77797
4.99525
4.99565
1.78368
0.420766
2.76379e-07
3.66994e-07
4.72066e-07
5.87416e-07
7.13199e-07
8.49905e-07
1.00524e-06
1.32846e-06
4.40075e-06
4.92087e-05
0.000638805
0.00714601
0.0648369
0.45047
2.18368
6.14956
6.15016
2.1908
0.515249
3.80829e-06
4.04692e-06
4.30094e-06
4.54931e-06
4.78783e-06
5.01337e-06
5.23064e-06
5.59884e-06
8.93441e-06
5.78942e-05
0.000703862
0.0078458
0.0712693
0.495927
2.40771
6.78937
6.79008
2.41559
0.567161
4.13723e-06
3.50804e-06
2.75725e-06
1.88752e-06
8.94357e-07
-2.24575e-07
-1.46258e-06
-2.65355e-06
-8.975e-07
4.7614e-05
0.00071008
0.00805947
0.0733879
0.511122
2.48317
7.00613
7.00687
2.4913
0.584485
-3.70971e-05
-4.10452e-05
-4.52528e-05
-4.95308e-05
-5.38521e-05
-5.81943e-05
-6.25269e-05
-6.66615e-05
-6.75605e-05
-2.23979e-05
0.000636041
0.00797928
0.0732916
0.510994
2.48315
7.0069
7.00763
2.49127
0.58434
-0.000119588
-0.000119853
-0.000119648
-0.000118725
-0.000117075
-0.000114703
-0.000111605
-0.000107613
-9.49368e-05
-3.00216e-05
0.000650797
0.00798294
0.072938
0.508017
2.46806
6.96358
6.96434
2.47622
0.58108
0.000185873
0.000214511
0.000244112
0.000274005
0.000304186
0.000334648
0.00036539
0.000396745
0.000627755
0.000906319
0.00179475
0.00931327
0.0741118
0.508066
2.46288
6.9461
6.94686
2.47104
0.580977
0.00159737
0.00162963
0.00166475
0.00169993
0.00173511
0.00177028
0.00180546
0.00184096
0.00206596
0.00233724
0.00321726
0.0107276
0.0755389
0.509586
2.46483
6.94907
6.94983
2.47299
0.582506
0.00300275
0.00303139
0.00306487
0.00309849
0.00313207
0.00316561
0.00319911
0.00323289
0.00344604
0.00370544
0.00457361
0.0120728
0.076891
0.511004
2.46661
6.9518
6.95256
2.47476
0.583919
0.0043339
0.00435873
0.00439013
0.00442183
0.0044535
0.00448512
0.0045167
0.00454855
0.00474967
0.00499699
0.00585249
0.0133321
0.0780797
0.511726
2.46523
6.94567
6.94642
2.47336
0.584541
0.00558685
0.00560807
0.00563728
0.005667
0.00569669
0.00572633
0.00575594
0.0057858
0.00597484
0.00621001
0.00705257
0.01451
0.0791594
0.512124
2.46244
6.93535
6.9361
2.47054
0.584802
0.00676035
0.00677814
0.00680509
0.00683278
0.00686047
0.00688811
0.0069157
0.00694355
0.00712048
0.00734359
0.00817453
0.0156245
0.080304
0.513422
2.46416
6.93742
6.93815
2.47224
0.586121
0.00785604
0.00787071
0.00789551
0.00792134
0.00794721
0.00797305
0.00799887
0.00802496
0.00819009
0.0084017
0.00922494
0.0167085
0.0817886
0.517562
2.47998
6.97917
6.97991
2.48814
0.590757
0.00888599
0.00889846
0.008922
0.00894693
0.00897199
0.0089971
0.00902226
0.00904774
0.00920226
0.00940394
0.0102256
0.0178001
0.0838032
0.525851
2.51666
7.08058
7.08137
2.52504
0.600225
0.00988226
0.00989412
0.00991786
0.0099433
0.00996889
0.00999447
0.01002
0.0100459
0.0101905
0.0103833
0.0112057
0.0188915
0.0860237
0.535945
2.56327
7.21246
7.21333
2.57197
0.611777
0.0108503
0.0108581
0.010878
0.0108995
0.0109208
0.0109417
0.0109623
0.0109827
0.0111092
0.0112807
0.0120794
0.0197533
0.0870819
0.538923
2.57711
7.25573
7.25667
2.58593
0.614999
0.0115601
0.0115511
0.011554
0.0115589
0.011564
0.0115688
0.0115734
0.011578
0.0115855
0.0116385
0.0122972
0.0195751
0.0844081
0.519983
2.48748
7.01108
7.012
2.49583
0.59293
0.0116097
0.0115955
0.0115918
0.0115902
0.0115888
0.0115873
0.0115857
0.0115841
0.011585
0.0116276
0.0122145
0.0187319
0.0767558
0.466604
2.22951
6.29115
6.29184
2.23631
0.530915
0.0114702
0.011453
0.0114436
0.0114363
0.0114291
0.0114217
0.0114141
0.0114066
0.0114011
0.0114297
0.0119017
0.017166
0.0638318
0.376558
1.79061
5.05607
5.05626
1.79466
0.42638
0.0110732
0.0110517
0.0110351
0.0110201
0.0110053
0.0109902
0.010975
0.0109596
0.0109458
0.0109572
0.0112883
0.0150083
0.0475806
0.263939
1.23907
3.49614
3.49564
1.23961
0.29573
0.0103633
0.0103376
0.0103138
0.0102911
0.0102685
0.0102457
0.0102228
0.0101998
0.0101779
0.0101726
0.0103693
0.0126074
0.0315794
0.154431
0.701388
1.96973
1.96852
0.698483
0.168793
0.00936406
0.00933559
0.00930635
0.00927787
0.00924947
0.009221
0.00919243
0.00916383
0.00913598
0.00911869
0.00921627
0.0103548
0.0191782
0.0718929
0.29612
0.815822
0.814073
0.290606
0.0732234
0.00816933
0.00814013
0.00810836
0.00807701
0.00804577
0.00801451
0.00798323
0.00795198
0.00792135
0.00789805
0.00794289
0.00848614
0.0117686
0.0259313
0.0717546
0.175639
0.173582
0.064774
0.0200969
0.00689636
0.00686824
0.00683646
0.00680483
0.0067733
0.00674181
0.00671035
0.00667894
0.00664816
0.00662375
0.00665298
0.00700648
0.0084737
0.00978299
-0.00459094
-0.0420445
-0.0442208
-0.0121293
0.00149948
0.00563646
0.0056104
0.00558005
0.00554962
0.00551928
0.00548899
0.00545875
0.00542858
0.00539907
0.0053761
0.00540812
0.00577367
0.00729471
0.00873853
-0.00567871
-0.0438777
-0.0460778
-0.0133167
0.000376472
0.00443695
0.00441328
0.00438496
0.00435636
0.00432782
0.00429934
0.00427092
0.00424259
0.00421493
0.00419409
0.00423177
0.0046426
0.00656053
0.0106948
0.0085475
-0.00111911
-0.00329727
0.000996716
0.00282527
0.0033196
0.00329856
0.00327275
0.00324652
0.00322034
0.00319423
0.0031682
0.00314229
0.00311705
0.00309848
0.00313764
0.0035526
0.00556948
0.0107134
0.0139692
0.0171558
0.0150711
0.0067412
0.00335784
0.00231057
0.00229268
0.00227028
0.00224739
0.00222457
0.00220184
0.00217923
0.00215675
0.00213492
0.00211906
0.00215472
0.00252598
0.004328
0.00890316
0.0116264
0.0140591
0.0121969
0.00515761
0.00232252
0.00145294
0.0014389
0.00142104
0.00140274
0.00138452
0.00136642
0.00134846
0.00133066
0.00131342
0.00130097
0.00132949
0.00162422
0.00304401
0.00653546
0.00784032
0.00772488
0.0062336
0.00264744
0.00123113
0.000792449
0.000782691
0.000770145
0.000757268
0.00074448
0.000731825
0.00071931
0.000706954
0.000695024
0.000686416
0.000705931
0.000908312
0.00188336
0.0042638
0.00499519
0.00451034
0.00348371
0.00141206
0.000602052
0.000350619
0.000344906
0.000337504
0.000329911
0.000322399
0.000315002
0.00030772
0.000300566
0.000293687
0.000288692
0.000299447
0.000412893
0.000963027
0.0023227
0.00282227
0.00275673
0.00218196
0.00081159
0.000272438
0.000107657
0.000105053
0.000101663
9.81941e-05
9.47841e-05
9.14494e-05
8.81909e-05
8.5012e-05
8.19716e-05
7.97216e-05
8.39091e-05
0.000130167
0.000356585
0.000923199
0.00116143
0.00121329
0.000978334
0.000337087
8.442e-05
8.49274e-06
7.73739e-06
6.75135e-06
5.75121e-06
4.78145e-06
3.84755e-06
2.9494e-06
2.08708e-06
1.27132e-06
6.28855e-07
1.27482e-06
1.03302e-05
5.56992e-05
0.000169911
0.000213351
0.000213134
0.000166022
4.68432e-05
6.376e-07
-1.27636e-05
-1.27612e-05
-1.27575e-05
-1.27469e-05
-1.27272e-05
-1.2698e-05
-1.26596e-05
-1.26129e-05
-1.25627e-05
-1.2557e-05
-1.30033e-05
-1.64305e-05
-3.24918e-05
-7.22857e-05
-9.12886e-05
-0.000100323
-8.37291e-05
-3.36561e-05
-1.36035e-05
-7.35969e-06
-7.22997e-06
-7.05999e-06
-6.88395e-06
-6.70832e-06
-6.53399e-06
-6.36113e-06
-6.19016e-06
-6.02549e-06
-5.91442e-06
-6.26529e-06
-9.65141e-06
-2.60124e-05
-6.65471e-05
-8.13075e-05
-7.91735e-05
-6.21575e-05
-2.15985e-05
-5.73613e-06
-9.61655e-07
-9.0517e-07
-8.31357e-07
-7.5617e-07
-6.82873e-07
-6.11887e-07
-5.43234e-07
-4.7696e-07
-4.14075e-07
-3.66076e-07
-4.33855e-07
-1.2613e-06
-5.36575e-06
-1.56108e-05
-1.89563e-05
-1.75073e-05
-1.32335e-05
-3.84398e-06
-2.31785e-07
8.13452e-07
8.1305e-07
8.12363e-07
8.1112e-07
8.09193e-07
8.06578e-07
8.03303e-07
7.99424e-07
7.95357e-07
7.95298e-07
8.34958e-07
1.13686e-06
2.54878e-06
5.98471e-06
7.09747e-06
6.53349e-06
5.06194e-06
1.96407e-06
7.47173e-07
3.66883e-07
3.57869e-07
3.46033e-07
3.33814e-07
3.21693e-07
3.09737e-07
2.97959e-07
2.86385e-07
2.75301e-07
2.6783e-07
2.91102e-07
5.17244e-07
1.61626e-06
4.35653e-06
5.37297e-06
5.28576e-06
4.14692e-06
1.36135e-06
2.75857e-07
-4.51188e-08
-4.70796e-08
-4.9622e-08
-5.21581e-08
-5.45605e-08
-5.68136e-08
-5.89193e-08
-6.08815e-08
-6.27083e-08
-6.44394e-08
-6.6303e-08
-6.91127e-08
-7.31443e-08
-6.93728e-08
-4.11873e-08
3.45701e-08
3.97599e-08
-3.07001e-08
-5.63771e-08
-6.05627e-08
-5.95237e-08
-5.81524e-08
-5.67209e-08
-5.52816e-08
-5.38423e-08
-5.24053e-08
-5.09756e-08
-4.96009e-08
-4.87933e-08
-5.29963e-08
-9.03878e-08
-2.70718e-07
-7.21265e-07
-9.00446e-07
-9.16946e-07
-7.30792e-07
-2.45102e-07
-5.51055e-08
1.20152e-09
1.58831e-09
2.0916e-09
2.59939e-09
3.08804e-09
3.55451e-09
3.99884e-09
4.4212e-09
4.81888e-09
5.15648e-09
5.10907e-09
2.52391e-09
-1.13534e-08
-4.73017e-08
-5.96268e-08
-5.69881e-08
-4.25962e-08
-7.704e-09
5.32409e-09
8.64534e-09
8.51082e-09
8.33287e-09
8.14631e-09
7.95782e-09
7.76843e-09
7.57847e-09
7.3887e-09
7.20648e-09
7.11061e-09
7.78577e-09
1.35798e-08
4.14467e-08
1.11022e-07
1.38046e-07
1.3902e-07
1.10273e-07
3.67529e-08
8.07086e-09
-3.91997e-10
-4.42945e-10
-5.09133e-10
-5.75757e-10
-6.39677e-10
-7.00493e-10
-7.58213e-10
-8.12883e-10
-8.64357e-10
-9.10195e-10
-9.26691e-10
-7.504e-10
3.04002e-10
3.06354e-09
3.41983e-09
1.76845e-09
6.53631e-10
-6.94538e-10
-1.11191e-09
-1.15771e-09
-1.13539e-09
-1.10596e-09
-1.07532e-09
-1.04462e-09
-1.01403e-09
-9.836e-10
-9.53439e-10
-9.24651e-10
-9.09225e-10
-1.01174e-09
-1.8983e-09
-6.17144e-09
-1.68147e-08
-2.05534e-08
-1.97066e-08
-1.52908e-08
-4.95846e-09
-9.59759e-10
2.07477e-10
2.11296e-10
2.162e-10
2.21006e-10
2.25452e-10
2.29508e-10
2.33181e-10
2.3649e-10
2.39578e-10
2.43865e-10
2.61417e-10
3.67266e-10
8.46504e-10
2.0037e-09
2.37268e-09
2.16259e-09
1.66706e-09
6.4621e-10
2.43688e-10
1.15697e-10
1.12087e-10
1.07355e-10
1.02482e-10
9.76682e-11
9.29401e-11
8.83024e-11
8.37661e-11
7.9461e-11
7.6823e-11
8.84681e-11
1.95322e-10
7.16374e-10
2.02842e-09
2.5344e-09
2.5524e-09
2.01607e-09
6.33681e-10
9.88595e-11
-5.46974e-11
-5.43341e-11
-5.3846e-11
-5.33144e-11
-5.27525e-11
-5.2163e-11
-5.15477e-11
-5.09119e-11
-5.03086e-11
-5.03073e-11
-5.58613e-11
-9.84714e-11
-3.01135e-10
-8.06291e-10
-9.99303e-10
-9.98324e-10
-7.89939e-10
-2.64376e-10
-5.96954e-11
2.14634e-13
5.57854e-13
1.00424e-12
1.45592e-12
1.8924e-12
2.31101e-12
2.71173e-12
3.09463e-12
3.4572e-12
3.76672e-12
3.72114e-12
1.30308e-12
-1.17649e-11
-4.58352e-11
-5.74333e-11
-5.48999e-11
-4.13787e-11
-8.41423e-12
3.80316e-12
6.49003e-12
6.33353e-12
6.12837e-12
5.91648e-12
5.70621e-12
5.4987e-12
5.29418e-12
5.09327e-12
4.9035e-12
4.8081e-12
5.53876e-12
1.17903e-11
4.2065e-11
1.18087e-10
1.46249e-10
1.44331e-10
1.13184e-10
3.58227e-11
5.975e-12
-2.79465e-12
-2.77312e-12
-2.74459e-12
-2.71412e-12
-2.68258e-12
-2.65011e-12
-2.61678e-12
-2.58288e-12
-2.55147e-12
-2.55591e-12
-2.88787e-12
-5.40928e-12
-1.74181e-11
-4.73995e-11
-5.85808e-11
-5.78968e-11
-4.55625e-11
-1.49803e-11
-3.12418e-12
2.20688e-13
2.32511e-13
2.47876e-13
2.63361e-13
2.78235e-13
2.92405e-13
3.05875e-13
3.18672e-13
3.30959e-13
3.44341e-13
3.72157e-13
4.95626e-13
1.0163e-12
2.24791e-12
2.7226e-12
2.68465e-12
2.154e-12
8.99914e-13
3.91013e-13
1.95803e-13
1.90385e-13
1.83323e-13
1.76086e-13
1.68966e-13
1.62e-13
1.55192e-13
1.48561e-13
1.4237e-13
1.39575e-13
1.66267e-13
3.90434e-13
1.47654e-12
4.2105e-12
5.22671e-12
5.17264e-12
4.05792e-12
1.26688e-12
1.93086e-13
)
;

boundaryField
{
    top
    {
        type            zeroGradient;
    }
    left
    {
        type            fixedValue;
        value           uniform 0;
    }
    bottom
    {
        type            zeroGradient;
    }
    right
    {
        type            zeroGradient;
    }
    frontAndBack
    {
        type            empty;
    }
}


// ************************************************************************* //
