/*--------------------------------*- C++ -*----------------------------------*\
| =========                 |                                                 |
| \\      /  F ield         | OpenFOAM: The Open Source CFD Toolbox           |
|  \\    /   O peration     | Version:  v1806                                 |
|   \\  /    A nd           | Web:      www.OpenFOAM.com                      |
|    \\/     M anipulation  |                                                 |
\*---------------------------------------------------------------------------*/
FoamFile
{
    version     2.0;
    format      ascii;
    class       volScalarField;
    location    "0.05";
    object      T;
}
// * * * * * * * * * * * * * * * * * * * * * * * * * * * * * * * * * * * * * //

dimensions      [0 0 0 1 0 0 0];


internalField   nonuniform List<scalar> 
1881
(
4.25601e-114
1.20417e-112
3.28914e-111
8.36172e-110
1.96695e-108
4.25235e-107
8.38114e-106
1.49144e-104
2.36794e-103
3.30453e-102
3.97601e-101
4.01944e-100
3.29236e-99
2.0693e-98
9.12069e-98
2.37071e-97
2.36324e-97
9.04356e-98
2.34384e-98
4.4468e-112
1.26043e-110
3.44886e-109
8.78322e-108
2.06975e-106
4.48247e-105
8.85028e-104
1.5777e-102
2.50932e-101
3.50799e-100
4.22822e-99
4.28186e-98
3.51336e-97
2.21192e-96
9.76489e-96
2.54156e-95
2.53382e-95
9.68601e-96
2.50659e-96
4.61814e-110
1.31135e-108
3.59446e-107
9.17001e-106
2.16467e-104
4.69626e-103
9.28864e-102
1.65875e-100
2.64283e-99
3.7011e-98
4.46875e-97
4.53328e-96
3.72602e-95
2.34974e-94
1.03898e-93
2.7078e-93
2.69983e-93
1.03097e-93
2.66403e-94
4.72169e-108
1.34317e-106
3.68812e-105
9.42542e-104
2.22886e-102
4.844e-101
9.59767e-100
1.71694e-98
2.74035e-97
3.84439e-96
4.64985e-95
4.72518e-94
3.89041e-93
2.45752e-92
1.08836e-91
2.84029e-91
2.83221e-91
1.08037e-91
2.78752e-92
4.75123e-106
1.35401e-104
3.7244e-103
9.53483e-102
2.2587e-100
4.91746e-99
9.76035e-98
1.74911e-96
2.7966e-95
3.93018e-94
4.76193e-93
4.84749e-92
3.99797e-91
2.52971e-90
1.12211e-89
2.93229e-89
2.92425e-89
1.11428e-89
2.8707e-90
4.70387e-104
1.34293e-102
3.70042e-101
9.4901e-100
2.25205e-98
4.91163e-97
9.76593e-96
1.7532e-94
2.80806e-93
3.95322e-92
4.79824e-91
4.89295e-90
4.04242e-89
2.56213e-88
1.13831e-87
2.9786e-87
2.97073e-87
1.13077e-87
2.9088e-88
4.5804e-102
1.31005e-100
3.61616e-99
9.29034e-98
2.20853e-96
4.82521e-95
9.61102e-94
1.72843e-92
2.77327e-91
3.91112e-90
4.75547e-89
4.8578e-88
4.02029e-87
2.55241e-86
1.1358e-85
2.97603e-85
2.96845e-85
1.12868e-85
2.89902e-86
4.38534e-100
1.25654e-98
3.47456e-97
8.94227e-96
2.12954e-94
4.66084e-93
9.30004e-92
1.67546e-90
2.69303e-89
3.80465e-88
4.63415e-87
4.74214e-86
3.93136e-85
2.50016e-84
1.11433e-83
2.92371e-83
2.91654e-83
1.10774e-83
2.84089e-84
4.12669e-98
1.18457e-96
3.28134e-95
8.45993e-94
2.01824e-92
4.42505e-91
8.84519e-90
1.59634e-88
2.57039e-87
3.63781e-86
4.43873e-85
4.55012e-84
3.7787e-83
2.40715e-82
1.0746e-81
2.82325e-81
2.8166e-81
1.0686e-81
2.73633e-82
3.81539e-96
1.09721e-94
3.04471e-93
7.86374e-92
1.87933e-90
4.1278e-89
8.26564e-88
1.49439e-86
2.4105e-85
3.41756e-84
4.17735e-83
4.28969e-82
3.5686e-81
2.27716e-80
1.0182e-79
2.67871e-79
2.67264e-79
1.01287e-79
2.58963e-80
3.46459e-94
9.98142e-93
2.77471e-91
7.17909e-90
1.71875e-88
3.78181e-87
7.58628e-86
1.374e-84
2.22025e-83
3.1534e-82
3.86127e-81
3.97208e-80
3.31012e-79
2.11581e-78
9.47583e-78
2.4963e-77
2.49087e-77
9.4293e-78
2.4071e-78
3.08863e-92
8.91453e-91
2.48253e-89
6.43452e-88
1.54323e-86
3.40165e-85
6.83583e-84
1.24028e-82
2.00774e-81
2.85664e-80
3.5041e-79
3.611e-78
3.01446e-77
1.93011e-76
8.65807e-76
2.28396e-75
2.2792e-75
8.61837e-76
2.19667e-76
2.70211e-90
7.81321e-89
2.17969e-87
5.65966e-86
1.35981e-84
3.00268e-83
6.04484e-82
1.09872e-80
1.78176e-79
2.53962e-78
3.12075e-77
3.22163e-76
2.6941e-75
1.72793e-74
7.76368e-74
2.05081e-73
2.04671e-73
7.73057e-74
1.96732e-74
2.31886e-88
6.71734e-87
1.87731e-85
4.8832e-84
1.17535e-82
2.59999e-81
5.24351e-80
9.54776e-79
1.55109e-77
2.21478e-76
2.72641e-75
2.81951e-74
2.36195e-73
1.51749e-72
6.82919e-72
1.80642e-71
1.80297e-71
6.80221e-72
1.72835e-72
1.95115e-86
5.6625e-85
1.58533e-83
4.13108e-82
9.96096e-81
2.20741e-79
4.45974e-78
8.13515e-77
1.32396e-75
1.89385e-74
2.33549e-73
2.41952e-72
2.03042e-71
1.30672e-70
5.89023e-70
1.56018e-69
1.55733e-69
5.86878e-70
1.48883e-70
1.60895e-84
4.67797e-83
1.31204e-81
3.42503e-80
8.27331e-79
1.8367e-77
3.71743e-76
6.79323e-75
1.10755e-73
1.58712e-72
1.96073e-71
2.03488e-70
1.71063e-69
1.1028e-68
4.97911e-68
1.32065e-67
1.31835e-67
4.96249e-68
1.25693e-68
1.29963e-82
3.78559e-81
1.06365e-79
2.7816e-78
6.73112e-77
1.49701e-75
3.03536e-74
5.55677e-73
9.0759e-72
1.3029e-70
1.61248e-69
1.67644e-68
1.41178e-67
9.11704e-67
4.12303e-66
1.09508e-65
1.09326e-65
4.1105e-66
1.03948e-66
1.02777e-80
2.99926e-79
8.44222e-78
2.21173e-76
5.36172e-75
1.1946e-73
2.42654e-72
4.45021e-71
7.28162e-70
1.0472e-68
1.29834e-67
1.35224e-66
1.14077e-65
7.3796e-65
3.34276e-64
8.8906e-64
8.87653e-64
3.33357e-64
8.41656e-65
7.95329e-79
2.32522e-77
6.55672e-76
1.72085e-74
4.17923e-73
9.32816e-72
1.8982e-70
3.48753e-69
5.71673e-68
8.23627e-67
1.02298e-65
1.06735e-64
9.02022e-64
5.84522e-63
2.65207e-62
7.06328e-62
7.05265e-62
2.64554e-62
6.66868e-63
6.01896e-77
1.76296e-75
4.98018e-74
1.30943e-72
3.1858e-71
7.12364e-70
1.45222e-68
2.67295e-67
4.38938e-66
6.33532e-65
7.8829e-64
8.23949e-63
6.97556e-62
4.52811e-61
2.05787e-60
5.48822e-60
5.48038e-60
2.05338e-60
5.16758e-61
4.4521e-75
1.30644e-73
3.69722e-72
9.73858e-71
2.37364e-69
5.31721e-68
1.08592e-66
2.00236e-65
3.29412e-64
4.76308e-63
5.93728e-62
6.21699e-61
5.27269e-60
3.42873e-59
1.56088e-58
4.1683e-58
4.16265e-58
1.5579e-58
3.91408e-59
3.21668e-73
9.4567e-72
2.68107e-70
7.07478e-69
1.7275e-67
3.87679e-66
7.93183e-65
1.46522e-63
2.41483e-62
3.49801e-61
4.36822e-60
4.58227e-59
3.8933e-58
2.53637e-57
1.15674e-56
3.09275e-56
3.08879e-56
1.15484e-56
2.89616e-57
2.26865e-71
6.682e-70
1.89784e-68
5.01707e-67
1.22728e-65
2.7592e-64
5.65552e-63
1.04663e-61
1.72807e-60
2.50775e-59
3.1373e-58
3.29707e-57
2.80663e-56
1.83219e-55
8.37475e-55
2.2408e-54
2.23809e-54
8.36313e-55
2.09253e-55
1.56079e-69
4.60566e-68
1.31049e-66
3.47064e-65
8.50531e-64
1.91567e-62
3.93367e-61
7.29301e-60
1.20634e-58
1.75381e-57
2.19814e-56
2.3145e-55
1.97447e-54
1.29258e-53
5.93076e-53
1.58552e-52
1.58372e-52
5.92395e-53
1.47632e-53
1.0467e-67
3.09444e-66
8.82084e-65
2.34033e-63
5.74574e-62
1.29648e-60
2.66708e-59
4.95377e-58
8.20902e-57
1.19566e-55
1.50146e-54
1.58439e-53
1.35572e-52
8.92418e-52
4.13386e-51
1.09789e-50
1.09672e-50
4.12992e-51
1.01878e-51
6.83712e-66
2.02509e-64
5.7831e-63
1.53715e-61
3.78075e-60
8.54653e-59
1.76138e-57
3.27754e-56
5.44135e-55
7.94062e-54
9.99304e-53
1.0577e-51
9.1054e-51
6.0846e-50
2.90532e-49
7.51155e-49
7.50413e-49
2.90271e-49
6.92996e-50
4.34651e-64
1.28981e-62
3.69005e-61
9.82609e-60
2.42122e-58
5.48327e-57
1.13213e-55
2.11055e-54
3.51061e-53
5.13393e-52
6.47975e-51
6.89904e-50
6.03824e-49
4.2342e-48
2.2311e-47
5.26577e-47
5.26112e-47
2.22833e-47
4.78173e-48
2.68692e-62
7.98826e-61
2.28956e-59
6.10792e-58
1.50779e-56
3.42092e-55
7.07627e-54
1.32168e-52
2.20298e-51
3.23051e-50
4.09948e-49
4.4337e-48
4.08752e-47
3.32406e-46
2.25042e-45
4.23701e-45
4.23399e-45
2.24541e-45
3.66114e-46
1.61368e-60
4.80652e-59
1.38014e-57
3.68859e-56
9.1223e-55
2.07352e-53
4.29722e-52
8.04243e-51
1.34397e-49
1.98027e-48
2.54757e-47
2.89095e-46
3.11547e-45
3.55809e-44
3.46492e-43
4.82855e-43
4.82623e-43
3.45372e-43
3.73897e-44
9.40604e-59
2.80697e-57
8.07471e-56
2.16202e-54
5.3568e-53
1.2199e-51
2.53316e-50
4.75236e-49
7.97462e-48
1.18844e-46
1.59242e-45
2.08521e-44
3.20078e-43
5.67895e-42
7.25202e-41
8.39203e-41
8.38944e-41
7.22603e-41
5.7173e-42
5.3159e-57
1.58938e-55
4.58051e-54
1.2287e-52
3.05002e-51
6.95932e-50
1.44841e-48
2.72703e-47
4.61794e-46
7.109e-45
1.07472e-43
1.96517e-42
4.81638e-41
1.16213e-39
1.71366e-38
1.85579e-38
1.85536e-38
1.70762e-38
1.14643e-39
2.9097e-55
8.71603e-54
2.51655e-52
6.76311e-51
1.68204e-49
3.84622e-48
8.02985e-47
1.52273e-45
2.64315e-44
4.47595e-43
9.07965e-42
2.6735e-40
9.20517e-39
2.60042e-37
4.19429e-36
4.4522e-36
4.45136e-36
4.18034e-36
2.54629e-37
1.54066e-53
4.62382e-52
1.3375e-50
3.60129e-49
8.97519e-48
2.05793e-46
4.32058e-45
8.34383e-44
1.55538e-42
3.35756e-41
1.08478e-39
4.66664e-38
1.91631e-36
5.95092e-35
1.036e-33
1.09161e-33
1.09143e-33
1.0328e-33
5.80857e-35
7.88142e-52
2.36988e-50
6.86808e-49
1.85297e-47
4.62935e-46
1.06617e-44
2.26789e-43
4.60819e-42
1.03652e-40
3.44305e-39
1.6941e-37
8.94175e-36
4.06296e-34
1.36437e-32
2.56511e-31
2.69097e-31
2.6906e-31
2.5578e-31
1.32908e-32
3.89002e-50
1.17195e-48
3.40302e-47
9.20185e-46
2.30712e-44
5.36299e-43
1.18116e-41
2.75032e-40
8.98165e-39
4.69947e-37
2.95358e-35
1.74404e-33
8.58215e-32
3.1144e-30
6.3603e-29
6.64733e-29
6.64655e-29
6.3437e-29
3.02852e-30
1.84976e-48
5.58376e-47
1.62479e-45
4.40642e-44
1.11209e-42
2.64526e-41
6.39243e-40
2.00399e-38
1.04293e-36
7.3456e-35
5.258e-33
3.37149e-31
1.79209e-29
7.06364e-28
1.58176e-26
1.64697e-26
1.64681e-26
1.57801e-26
6.85631e-28
8.46081e-47
2.55931e-45
7.46606e-44
2.03445e-42
5.21135e-41
1.31573e-39
3.94901e-38
1.92552e-36
1.43217e-34
1.18189e-32
9.2341e-31
6.39298e-29
3.68543e-27
1.59138e-25
3.95641e-24
4.10365e-24
4.10332e-24
3.94798e-24
1.54162e-25
3.71634e-45
1.12676e-43
3.29878e-42
9.0747e-41
2.41069e-39
7.0281e-38
3.07445e-36
2.25922e-34
2.05541e-32
1.8693e-30
1.57699e-28
1.18178e-26
7.44475e-25
3.56279e-23
9.97151e-22
1.0302e-21
1.03014e-21
9.95274e-22
3.445e-23
1.56478e-43
4.75802e-42
1.40159e-40
3.9389e-39
1.14185e-37
4.41659e-36
2.97473e-34
2.8383e-32
2.89627e-30
2.8479e-28
2.59481e-26
2.11803e-24
1.47335e-22
7.91925e-21
2.52497e-19
2.5987e-19
2.59857e-19
2.52089e-19
7.64972e-21
6.3042e-42
1.92506e-40
5.74065e-39
1.69425e-37
5.90582e-36
3.39734e-34
3.18208e-32
3.51294e-30
3.89197e-28
4.12358e-26
4.07614e-24
3.6564e-22
2.84325e-20
1.73732e-18
6.34921e-17
6.51181e-17
6.51157e-17
6.34075e-17
1.67967e-18
2.42583e-40
7.46095e-39
2.283e-37
7.48126e-36
3.53882e-34
2.97419e-32
3.39068e-30
4.10593e-28
4.89189e-26
5.59612e-24
6.04251e-22
6.01968e-20
5.29389e-18
3.7041e-16
1.5506e-14
1.58553e-14
1.58549e-14
1.54899e-14
3.59413e-16
8.9008e-39
2.77396e-37
8.94624e-36
3.54721e-34
2.41846e-32
2.64744e-30
3.38522e-28
4.4068e-26
5.63621e-24
6.98925e-22
8.30841e-20
9.28478e-18
9.30539e-16
7.46184e-14
3.56284e-12
3.63393e-12
3.63387e-12
3.5602e-12
7.28673e-14
3.10983e-37
9.92961e-36
3.52659e-34
1.83609e-32
1.71932e-30
2.20195e-28
3.03985e-26
4.21979e-24
5.79298e-22
7.81613e-20
1.02955e-17
1.29861e-15
1.48541e-13
1.3605e-11
7.39962e-10
7.53072e-10
7.53065e-10
7.39611e-10
1.33971e-11
1.0333e-35
3.43752e-34
1.41605e-32
9.8839e-31
1.14796e-28
1.61172e-26
2.35668e-24
3.46634e-22
5.09474e-20
7.47832e-18
1.09248e-15
1.55366e-13
2.02002e-11
2.1089e-09
1.32077e-07
1.34133e-07
1.34132e-07
1.32044e-07
2.09528e-09
3.25792e-34
1.1504e-32
5.67192e-31
5.03088e-29
6.61457e-27
9.79527e-25
1.49207e-22
2.29707e-20
3.57275e-18
5.63818e-16
9.02145e-14
1.42871e-11
2.09512e-09
2.51027e-07
1.88832e-05
1.91305e-05
1.91304e-05
1.88815e-05
2.51396e-07
9.69378e-33
3.66334e-31
2.12244e-29
2.18215e-27
3.03217e-25
4.57747e-23
7.06747e-21
1.10445e-18
1.75055e-16
2.83603e-14
4.7244e-12
7.97533e-10
1.29211e-07
1.82114e-05
0.00192111
0.00193919
0.00193919
0.00192111
1.83372e-05
2.69101e-31
1.06917e-29
6.7605e-28
7.27259e-26
1.00129e-23
1.46547e-21
2.16428e-19
3.17325e-17
4.55378e-15
6.26663e-13
8.03489e-11
9.23884e-09
9.05819e-07
7.05024e-05
0.00386871
0.0039383
0.0039383
0.00386872
7.14049e-05
6.85814e-30
2.72888e-28
1.67715e-26
1.68246e-24
2.11541e-22
2.77036e-20
3.55596e-18
4.36863e-16
5.04222e-14
5.35421e-12
5.09905e-10
4.2165e-08
2.89811e-06
0.000155157
0.00578446
0.00593668
0.00593668
0.0057845
0.000158051
1.58615e-28
5.97007e-27
3.15013e-25
2.60202e-23
2.76512e-21
3.08168e-19
3.32172e-17
3.36135e-15
3.13458e-13
2.64361e-11
1.97099e-09
1.2612e-07
6.64719e-06
0.000271101
0.00767676
0.00794109
0.00794109
0.00767688
0.000277745
3.33547e-27
1.15884e-25
4.90075e-24
2.96863e-22
2.46621e-20
2.2834e-18
2.07655e-16
1.76585e-14
1.37143e-12
9.54268e-11
5.82038e-09
3.02489e-07
1.28737e-05
0.00042227
0.00961005
0.0100191
0.0100191
0.00961035
0.00043514
6.41865e-26
2.09562e-24
7.31085e-23
3.06014e-21
1.73901e-19
1.23732e-17
9.32005e-16
6.72895e-14
4.45608e-12
2.63913e-10
1.36584e-08
6.00466e-07
2.15639e-05
0.000595999
0.0114429
0.0120168
0.0120168
0.0114435
0.00061756
1.12655e-24
3.56971e-23
1.12764e-21
3.65054e-20
1.35684e-18
6.39173e-17
3.62644e-15
2.15925e-13
1.22323e-11
6.26618e-10
2.81072e-08
1.07037e-06
3.3265e-05
0.000795468
0.0132439
0.0140052
0.0140052
0.0132449
0.000828731
1.7771e-23
5.57396e-22
1.69975e-20
4.95468e-19
1.43117e-17
4.42393e-16
1.60185e-14
6.82702e-13
3.10227e-11
1.35274e-09
5.28716e-08
1.76835e-06
4.83876e-05
0.00102017
0.0150221
0.0159945
0.0159945
0.0150239
0.00106855
2.47357e-22
7.74282e-21
2.33937e-19
6.62169e-18
1.76279e-16
4.48663e-15
1.13728e-13
3.07023e-12
9.26965e-11
3.028e-09
9.7366e-08
2.81243e-06
6.78757e-05
0.00127384
0.016805
0.0180411
0.0180412
0.0168078
0.00134171
2.97441e-21
9.31725e-20
2.81167e-18
7.91008e-17
2.06678e-15
5.00514e-14
1.12656e-12
2.38888e-11
4.92573e-10
1.03358e-08
2.25949e-07
4.94011e-06
9.83989e-05
0.00160189
0.0188258
0.0207326
0.0207328
0.0188308
0.00170028
3.00954e-20
9.4419e-19
2.85216e-17
8.02273e-16
2.09004e-14
5.01329e-13
1.10053e-11
2.19917e-10
3.98939e-09
6.59194e-08
1.00548e-06
1.44429e-05
0.000195921
0.00238241
0.022894
0.0293153
0.0293162
0.0229084
0.00257828
2.47213e-19
7.76964e-18
2.35078e-16
6.62118e-15
1.72616e-13
4.13788e-12
9.05098e-11
1.79045e-09
3.17038e-08
4.96674e-07
6.79643e-06
8.01503e-05
0.000802903
0.00668599
0.0438959
0.085599
0.0856052
0.0439757
0.00748865
1.56405e-18
4.92446e-17
1.49249e-15
4.21065e-14
1.09938e-12
2.63858e-11
5.77498e-10
1.14167e-08
2.0151e-07
3.13021e-06
4.20219e-05
0.000476102
0.00440785
0.0318141
0.165773
0.426115
0.426154
0.166249
0.0362214
7.00572e-18
2.20948e-16
6.70735e-15
1.89535e-13
4.95647e-12
1.19138e-10
2.61112e-09
5.16768e-08
9.12648e-07
1.41708e-05
0.000189782
0.00213689
0.0195176
0.137047
0.676718
1.86442
1.8646
0.678857
0.156564
1.91363e-17
6.04318e-16
1.83688e-14
5.19723e-13
1.36084e-11
3.27512e-10
7.18677e-09
1.42398e-07
2.51747e-06
3.91211e-05
0.00052414
0.00589955
0.0537877
0.37598
1.83845
5.14208
5.14257
1.84435
0.429767
2.45745e-17
7.75934e-16
2.35817e-14
6.67115e-13
1.7465e-11
4.20269e-10
9.22081e-09
1.82674e-07
3.229e-06
5.01696e-05
0.000672021
0.00756171
0.0689076
0.481247
2.34936
6.58038
6.58101
2.35692
0.550154
2.58904e-17
8.17398e-16
2.48394e-14
7.02631e-13
1.83933e-11
4.4257e-10
9.70944e-09
1.92343e-07
3.39975e-06
5.28204e-05
0.000707501
0.00796046
0.0725329
0.506443
2.47117
6.92088
6.92153
2.47912
0.578976
2.61092e-17
8.24299e-16
2.5049e-14
7.08563e-13
1.85488e-11
4.46322e-10
9.79207e-09
1.93988e-07
3.42903e-06
5.32786e-05
0.000713682
0.00803039
0.0731703
0.510851
2.49207
6.97713
6.97779
2.50009
0.584021
2.61409e-17
8.25325e-16
2.50811e-14
7.09503e-13
1.85744e-11
4.46966e-10
9.8069e-09
1.94298e-07
3.43479e-06
5.33727e-05
0.000714997
0.00804559
0.0733088
0.511772
2.496
6.98567
6.98633
2.50404
0.585081
2.61529e-17
8.25747e-16
2.50954e-14
7.09953e-13
1.85875e-11
4.47315e-10
9.81537e-09
1.94482e-07
3.43832e-06
5.34313e-05
0.000715819
0.00805494
0.0733907
0.512274
2.4975
6.98796
6.98862
2.50555
0.585665
2.61705e-17
8.26355e-16
2.51155e-14
7.10572e-13
1.8605e-11
4.47769e-10
9.82602e-09
1.94705e-07
3.44244e-06
5.3497e-05
0.0007167
0.00806452
0.0734704
0.512714
2.49709
6.98793
6.98859
2.50515
0.586185
2.62018e-17
8.27392e-16
2.51485e-14
7.11543e-13
1.86314e-11
4.48423e-10
9.84068e-09
1.94999e-07
3.44763e-06
5.35762e-05
0.000717715
0.00807508
0.0735536
0.513125
2.49668
6.98784
6.9885
2.50475
0.586679
2.62542e-17
8.29066e-16
2.51997e-14
7.12996e-13
1.86693e-11
4.49327e-10
9.86018e-09
1.95375e-07
3.45401e-06
5.36695e-05
0.000718865
0.00808652
0.0736393
0.513506
2.49626
6.9877
6.98837
2.50434
0.587146
2.63284e-17
8.31366e-16
2.5268e-14
7.14876e-13
1.87169e-11
4.50427e-10
9.88315e-09
1.95803e-07
3.46104e-06
5.37691e-05
0.000720049
0.00809787
0.07372
0.513825
2.49572
6.9874
6.98806
2.50382
0.587545
2.63996e-17
8.33524e-16
2.53308e-14
7.16568e-13
1.87588e-11
4.51375e-10
9.90251e-09
1.96156e-07
3.4667e-06
5.38473e-05
0.000720955
0.00810625
0.0737753
0.513983
2.49475
6.98652
6.98718
2.50285
0.587759
2.64267e-17
8.3434e-16
2.53544e-14
7.17199e-13
1.87744e-11
4.51723e-10
9.90957e-09
1.96284e-07
3.46873e-06
5.3875e-05
0.000721268
0.00810893
0.0737877
0.513913
2.49325
6.98493
6.9856
2.50135
0.587701
2.64328e-17
8.34523e-16
2.53597e-14
7.17339e-13
1.87778e-11
4.518e-10
9.91112e-09
1.96311e-07
3.46916e-06
5.38806e-05
0.000721321
0.00810907
0.0737799
0.513731
2.49152
6.98303
6.9837
2.49962
0.587511
2.64337e-17
8.34551e-16
2.53605e-14
7.17361e-13
1.87783e-11
4.51812e-10
9.91134e-09
1.96315e-07
3.46921e-06
5.38807e-05
0.000721304
0.00810841
0.0737648
0.513505
2.48976
6.98105
6.98172
2.49786
0.58727
2.64338e-17
8.34553e-16
2.53605e-14
7.17361e-13
1.87783e-11
4.5181e-10
9.9113e-09
1.96314e-07
3.46915e-06
5.38791e-05
0.000721258
0.00810732
0.0737446
0.513247
2.48798
6.97901
6.97968
2.49608
0.586992
2.64338e-17
8.34541e-16
2.53598e-14
7.17334e-13
1.87774e-11
4.51784e-10
9.91062e-09
1.96298e-07
3.46881e-06
5.38724e-05
0.000721132
0.00810517
0.0737135
0.512916
2.48596
6.97632
6.97699
2.49406
0.586628
2.64332e-17
8.34413e-16
2.5353e-14
7.1706e-13
1.87684e-11
4.51526e-10
9.90412e-09
1.96154e-07
3.46601e-06
5.38243e-05
0.000720418
0.00809607
0.0736175
0.512138
2.48191
6.96775
6.96841
2.48999
0.585746
2.64297e-17
8.33411e-16
2.52982e-14
7.1488e-13
1.86961e-11
4.49457e-10
9.85221e-09
1.9501e-07
3.44398e-06
5.34571e-05
0.0007152
0.00803432
0.0730295
0.507889
2.46098
6.91154
6.91218
2.46895
0.580835
2.64129e-17
8.2746e-16
2.49686e-14
7.01669e-13
1.8257e-11
4.36847e-10
9.5352e-09
1.88019e-07
3.30938e-06
5.12189e-05
0.00068357
0.00766344
0.0695474
0.48312
2.33957
6.57148
6.572
2.3468
0.552127
2.6363e-17
8.03351e-16
2.36156e-14
6.47124e-13
1.64368e-11
3.8443e-10
8.21426e-09
1.58828e-07
2.74647e-06
4.1846e-05
0.000551015
0.00610906
0.0549609
0.379425
1.83057
5.13512
5.13509
1.83473
0.431901
2.62887e-17
7.50541e-16
2.06169e-14
5.25609e-13
1.23682e-11
2.66957e-10
5.24725e-09
9.31301e-08
1.47729e-06
2.06783e-05
0.0002512
0.00258857
0.0218841
0.144003
0.673285
1.8619
1.86064
0.670439
0.158971
2.62391e-17
7.26446e-16
1.92642e-14
4.71066e-13
1.05478e-11
2.14524e-10
3.9257e-09
6.39207e-08
9.13944e-07
1.12971e-05
0.000118518
0.00103278
0.00728746
0.040274
0.164322
0.425544
0.423747
0.158397
0.0387011
2.62216e-17
7.20462e-16
1.89332e-14
4.57801e-13
1.01066e-11
2.01849e-10
3.60682e-09
5.68825e-08
7.78341e-07
9.04071e-06
8.66252e-05
0.00065906
0.00378493
0.0154375
0.0429748
0.0855108
0.0835858
0.0363169
0.00990341
2.62156e-17
7.19362e-16
1.88748e-14
4.55488e-13
1.00301e-11
1.99653e-10
3.55151e-09
5.56582e-08
7.5466e-07
8.64483e-06
8.10044e-05
0.000593
0.00316626
0.0110857
0.0221512
0.0293341
0.027388
0.0153693
0.00485916
2.62095e-17
7.19027e-16
1.88605e-14
4.54969e-13
1.00135e-11
1.99183e-10
3.53963e-09
5.53927e-08
7.49451e-07
8.55649e-06
7.97371e-05
0.000578095
0.00302913
0.010169
0.0182285
0.0208009
0.0188517
0.0114247
0.00379641
2.61962e-17
7.18562e-16
1.88448e-14
4.54479e-13
9.99932e-12
1.98807e-10
3.5306e-09
5.51979e-08
7.45746e-07
8.49546e-06
7.88897e-05
0.000568531
0.0029461
0.00966269
0.0164048
0.0181875
0.0162375
0.00959136
0.0032071
2.615e-17
7.17165e-16
1.88038e-14
4.53352e-13
9.97048e-12
1.98125e-10
3.51584e-09
5.49093e-08
7.40723e-07
8.41928e-06
7.79095e-05
0.000558234
0.00286266
0.00918796
0.0148241
0.0161983
0.0142492
0.00800732
0.00265778
2.59015e-17
7.10193e-16
1.86158e-14
4.48655e-13
9.86249e-12
1.95856e-10
3.47263e-09
5.41718e-08
7.2959e-07
8.27323e-06
7.6284e-05
0.000543408
0.00275758
0.0086586
0.0132263
0.0142221
0.0122874
0.00645245
0.0020969
2.45445e-17
6.72864e-16
1.76331e-14
4.24832e-13
9.33473e-12
1.85266e-10
3.28226e-09
5.11462e-08
6.87786e-07
7.78192e-06
7.15129e-05
0.000506645
0.00254577
0.00782622
0.0112962
0.011921
0.0100806
0.00484534
0.00151104
1.90774e-17
5.22945e-16
1.37024e-14
3.30064e-13
7.25026e-12
1.43836e-10
2.5468e-09
3.96539e-08
5.32633e-07
6.01635e-06
5.51465e-05
0.000389057
0.00193995
0.00586377
0.00806142
0.00835624
0.00691906
0.00301915
0.000886567
6.95852e-18
1.9049e-16
4.98471e-15
1.1991e-13
2.63033e-12
5.21083e-11
9.21282e-10
1.43222e-08
1.92059e-07
2.16548e-06
1.98082e-05
0.000139394
0.000692631
0.00208083
0.00281686
0.00290238
0.00238566
0.00100486
0.000287888
1.54698e-18
4.22787e-17
1.10455e-15
2.65271e-14
5.80935e-13
1.14894e-11
2.02788e-10
3.14705e-09
4.21263e-08
4.741e-07
4.32825e-06
3.0394e-05
0.000150647
0.00045101
0.000606344
0.000623034
0.000510337
0.000211474
5.98808e-05
2.43423e-19
6.641e-18
1.73202e-16
4.15246e-15
9.07789e-14
1.79221e-12
3.15763e-11
4.8915e-10
6.5358e-09
7.34189e-08
6.68992e-07
4.68846e-06
2.31881e-05
6.92438e-05
9.27294e-05
9.51304e-05
7.77606e-05
3.19267e-05
8.98153e-06
2.94955e-20
8.03238e-19
2.09122e-17
5.00478e-16
1.09217e-14
2.15237e-13
3.78534e-12
5.85321e-11
7.80643e-10
8.75294e-09
7.96063e-08
5.56827e-07
2.74846e-06
8.18972e-06
1.09393e-05
1.12106e-05
9.1504e-06
3.73471e-06
1.0464e-06
2.90063e-21
7.8848e-20
2.04917e-18
4.8954e-17
1.06639e-15
2.09776e-14
3.68261e-13
5.68397e-12
7.56677e-11
8.4685e-10
7.68755e-09
5.36712e-08
2.64412e-07
7.86359e-07
1.04841e-06
1.07357e-06
8.75299e-07
3.55764e-07
9.94111e-08
2.39883e-22
6.50886e-21
1.68857e-19
4.02675e-18
8.75591e-17
1.71932e-15
3.01278e-14
4.64161e-13
6.16779e-12
6.89007e-11
6.24309e-10
4.35056e-09
2.13934e-08
6.35092e-08
8.45509e-08
8.65255e-08
7.04813e-08
2.85578e-08
7.96499e-09
1.71135e-23
4.63501e-22
1.20031e-20
2.85728e-19
6.20184e-18
1.2156e-16
2.12625e-15
3.26982e-14
4.337e-13
4.83598e-12
4.37381e-11
3.04234e-10
1.49332e-09
4.42553e-09
5.8848e-09
6.01912e-09
4.89916e-09
1.9802e-09
5.51555e-10
1.07351e-24
2.90221e-23
7.50242e-22
1.78273e-20
3.86256e-19
7.55727e-18
1.31948e-16
2.02545e-15
2.6816e-14
2.98467e-13
2.69449e-12
1.87083e-11
9.1665e-11
2.71205e-10
3.60269e-10
3.68328e-10
2.99585e-10
1.2085e-10
3.36281e-11
6.00905e-26
1.62158e-24
4.1845e-23
9.9256e-22
2.14669e-20
4.19257e-19
7.30692e-18
1.11962e-16
1.47963e-15
1.64386e-14
1.48135e-13
1.02667e-12
5.02151e-12
1.4833e-11
1.9687e-11
2.01195e-11
1.63541e-11
6.58623e-12
1.83139e-12
2.89793e-27
7.80679e-26
2.01118e-24
4.7625e-23
1.02829e-21
2.00488e-20
3.48819e-19
5.3357e-18
7.0393e-17
7.80715e-16
7.02324e-15
4.85926e-14
2.37277e-13
6.99844e-13
9.28168e-13
9.48233e-13
7.70336e-13
3.09819e-13
8.61064e-14
)
;

boundaryField
{
    top
    {
        type            zeroGradient;
    }
    left
    {
        type            fixedValue;
        value           uniform 0;
    }
    bottom
    {
        type            zeroGradient;
    }
    right
    {
        type            zeroGradient;
    }
    frontAndBack
    {
        type            empty;
    }
}


// ************************************************************************* //
