/*--------------------------------*- C++ -*----------------------------------*\
| =========                 |                                                 |
| \\      /  F ield         | OpenFOAM: The Open Source CFD Toolbox           |
|  \\    /   O peration     | Version:  v1806                                 |
|   \\  /    A nd           | Web:      www.OpenFOAM.com                      |
|    \\/     M anipulation  |                                                 |
\*---------------------------------------------------------------------------*/
FoamFile
{
    version     2.0;
    format      ascii;
    class       volScalarField;
    location    "0.085";
    object      T;
}
// * * * * * * * * * * * * * * * * * * * * * * * * * * * * * * * * * * * * * //

dimensions      [0 0 0 1 0 0 0];


internalField   nonuniform List<scalar> 
1881
(
-4.89927e-23
-4.30406e-23
-5.9951e-23
-4.37426e-22
-5.3166e-21
-5.85742e-20
-5.37924e-19
-3.69258e-18
-1.13232e-17
1.4616e-16
3.13751e-15
3.40964e-14
2.56155e-13
1.37192e-12
4.99426e-12
1.09038e-11
1.09462e-11
5.09731e-12
1.67486e-12
5.84659e-22
6.11162e-22
4.8162e-22
-2.45331e-21
-4.86176e-20
-7.03722e-19
-9.14087e-18
-1.06881e-16
-1.11314e-15
-1.01797e-14
-8.02634e-14
-5.32629e-13
-2.87802e-12
-1.20726e-11
-3.65242e-11
-7.04877e-11
-7.05399e-11
-3.70262e-11
-1.4933e-11
1.06182e-21
9.99603e-22
7.41101e-22
-2.70816e-21
-5.9328e-20
-9.25051e-19
-1.29026e-17
-1.61305e-16
-1.78925e-15
-1.73707e-14
-1.44989e-13
-1.01594e-12
-5.78153e-12
-2.5462e-11
-8.04711e-11
-1.60467e-10
-1.60722e-10
-8.17094e-11
-3.13994e-11
-4.99249e-21
-5.50114e-21
-5.71026e-21
1.34236e-21
1.09508e-19
1.47978e-18
1.69035e-17
1.69686e-16
1.47434e-15
1.07868e-14
6.36138e-14
2.78722e-13
7.28697e-13
-1.6034e-13
-9.61822e-12
-3.22692e-11
-3.26479e-11
-1.00926e-11
6.08375e-14
-2.2568e-20
-2.28627e-20
-2.0942e-20
1.90008e-20
6.35504e-19
9.26782e-18
1.19035e-16
1.37463e-15
1.41379e-14
1.27673e-13
9.93989e-13
6.51259e-12
3.4744e-11
1.43921e-10
4.30313e-10
8.22885e-10
8.23301e-10
4.36041e-10
1.78168e-10
1.50405e-20
2.08365e-20
3.21727e-20
1.06802e-19
1.18492e-18
1.69889e-17
2.2871e-16
2.7785e-15
3.00439e-14
2.85027e-13
2.32967e-12
1.60147e-11
8.95653e-11
3.88336e-10
1.21096e-09
2.39152e-09
2.39466e-09
1.22889e-09
4.79272e-10
2.98018e-19
3.14062e-19
3.32064e-19
3.13339e-19
-1.27725e-19
-4.35899e-18
-2.95027e-17
2.25324e-17
4.11908e-15
7.34881e-14
8.64597e-13
7.64799e-12
5.16963e-11
2.59841e-10
9.08355e-10
1.93673e-09
1.94271e-09
9.25065e-10
3.17701e-10
4.1441e-19
3.7849e-19
3.02522e-19
-2.17482e-19
-7.2457e-18
-1.03178e-16
-1.30196e-15
-1.47792e-14
-1.49345e-13
-1.32419e-12
-1.01142e-11
-6.49579e-11
-3.39416e-10
-1.37633e-09
-4.03055e-09
-7.58005e-09
-7.58079e-09
-4.08146e-09
-1.70653e-09
-2.6815e-18
-2.94547e-18
-3.34737e-18
-4.75607e-18
-2.155e-17
-2.58741e-16
-3.36369e-15
-3.99856e-14
-4.24002e-13
-3.94944e-12
-3.17268e-11
-2.14561e-10
-1.18168e-09
-5.05122e-09
-1.55552e-08
-3.04371e-08
-3.04696e-08
-1.57778e-08
-6.23929e-09
-1.01568e-17
-1.02667e-17
-1.03993e-17
-1.08968e-17
-1.95315e-17
-1.67393e-16
-2.39655e-15
-3.19926e-14
-3.75936e-13
-3.83422e-12
-3.34004e-11
-2.4297e-10
-1.42913e-09
-6.47887e-09
-2.0983e-08
-4.25792e-08
-4.26598e-08
-2.13151e-08
-7.96928e-09
1.12756e-17
1.41578e-17
1.81762e-17
2.63788e-17
8.98376e-17
8.83383e-16
1.04549e-14
1.14504e-13
1.11607e-12
9.51182e-12
6.9518e-11
4.24916e-10
2.0999e-09
8.00148e-09
2.19274e-08
3.89108e-08
3.88601e-08
2.21587e-08
9.9719e-09
1.40422e-16
1.47404e-16
1.56873e-16
1.78677e-16
3.88441e-16
3.24588e-15
3.99229e-14
4.64724e-13
4.84101e-12
4.4326e-11
3.50172e-10
2.32977e-09
1.26293e-08
5.31749e-08
1.61518e-07
3.12787e-07
3.13042e-07
1.63756e-07
6.57503e-08
1.43691e-16
1.23506e-16
9.74046e-17
8.16054e-17
3.04183e-16
4.14e-15
5.66923e-14
6.97358e-13
7.62381e-12
7.30886e-11
6.03485e-10
4.18964e-09
2.36564e-08
1.03509e-07
3.25468e-07
6.46827e-07
6.47722e-07
3.30293e-07
1.2761e-07
-1.35116e-15
-1.47297e-15
-1.62828e-15
-1.81044e-15
-2.22769e-15
-5.35337e-15
-3.64036e-14
-3.11735e-13
-2.29199e-12
-1.23786e-11
-2.95562e-11
2.59054e-10
3.8687e-09
2.64584e-08
1.09135e-07
2.5433e-07
2.55485e-07
1.11442e-07
3.17153e-08
-4.29826e-15
-4.29861e-15
-4.2911e-15
-4.36301e-15
-6.11872e-15
-3.16519e-14
-3.55167e-13
-4.02711e-12
-4.10586e-11
-3.67963e-10
-2.8441e-09
-1.85067e-08
-9.80912e-08
-4.03879e-07
-1.20115e-06
-2.28802e-06
-2.28904e-06
-1.21709e-06
-5.00286e-07
7.3463e-15
8.78449e-15
1.05971e-14
1.23545e-14
1.06594e-14
-4.26051e-14
-7.68266e-13
-9.35151e-12
-9.93883e-11
-9.26438e-10
-7.44938e-09
-5.0446e-08
-2.78303e-07
-1.19204e-06
-3.67881e-06
-7.21178e-06
-7.21945e-06
-3.7312e-06
-1.47179e-06
6.41917e-14
6.70132e-14
7.03845e-14
7.3556e-14
7.43818e-14
4.05641e-14
-4.89815e-13
-7.38007e-12
-8.58714e-11
-8.62498e-10
-7.41643e-09
-5.3382e-08
-3.11301e-07
-1.40156e-06
-4.5152e-06
-9.13062e-06
-9.14604e-06
-4.58402e-06
-1.72347e-06
3.90254e-14
2.7543e-14
1.28235e-14
-3.40964e-15
-1.2233e-14
1.04946e-13
1.75832e-12
1.99042e-11
1.94094e-10
1.64823e-09
1.19938e-08
7.29604e-08
3.58669e-07
1.3587e-06
3.69995e-06
6.52882e-06
6.52095e-06
3.74094e-06
1.69586e-06
-6.70857e-13
-7.26763e-13
-7.94743e-13
-8.63551e-13
-8.99476e-13
-4.51569e-13
6.15512e-12
8.30625e-11
8.72066e-10
7.95835e-09
6.26146e-08
4.15011e-07
2.24209e-06
9.4126e-06
2.85225e-05
5.51466e-05
5.51887e-05
2.89151e-05
1.16403e-05
-1.75367e-12
-1.72744e-12
-1.68719e-12
-1.62411e-12
-1.48448e-12
-5.45339e-13
1.05999e-11
1.42059e-10
1.53461e-09
1.44663e-08
1.17578e-07
8.04645e-07
4.48494e-06
1.94002e-05
6.04125e-05
0.00011924
0.000119379
6.12791e-05
2.39289e-05
4.4089e-12
5.12227e-12
5.99566e-12
6.94125e-12
7.95856e-12
9.19244e-12
1.33256e-11
6.05105e-11
6.53147e-10
7.0649e-09
6.5174e-08
4.96956e-07
3.03831e-06
1.42204e-05
4.72516e-05
9.75899e-05
9.77854e-05
4.79882e-05
1.74225e-05
2.89564e-11
3.00463e-11
3.1275e-11
3.24001e-11
3.31935e-11
3.12564e-11
-2.27504e-12
-3.81945e-10
-4.13871e-09
-3.66156e-08
-2.7722e-07
-1.7637e-06
-9.12912e-06
-3.66787e-05
-0.000106492
-0.000198954
-0.000198973
-0.000107864
-4.55445e-05
4.80328e-12
-1.50479e-12
-9.31806e-12
-1.81711e-11
-2.85927e-11
-4.746e-11
-1.61221e-10
-1.35194e-09
-1.3504e-08
-1.23181e-07
-9.74435e-07
-6.50002e-06
-3.53531e-05
-0.000149434
-0.000455799
-0.000885831
-0.000886587
-0.000462119
-0.000184676
-3.2781e-10
-3.53111e-10
-3.8265e-10
-4.13062e-10
-4.44536e-10
-4.86362e-10
-6.62994e-10
-2.43678e-09
-2.09884e-08
-1.93363e-07
-1.57042e-06
-1.07663e-05
-6.01405e-05
-0.000260739
-0.000813736
-0.00160893
-0.0016108
-0.000825338
-0.000321463
-6.91618e-10
-6.66601e-10
-6.32787e-10
-5.88853e-10
-5.33453e-10
-4.66854e-10
-4.15453e-10
-8.05674e-10
-7.11058e-09
-7.76979e-08
-7.26224e-07
-5.59018e-06
-3.44277e-05
-0.000162077
-0.000541039
-0.00112094
-0.00112312
-0.000549312
-0.000198337
2.47516e-09
2.82413e-09
3.23476e-09
3.67416e-09
4.14227e-09
4.66702e-09
5.59756e-09
1.0763e-08
5.71996e-08
4.55838e-07
3.41835e-06
2.18117e-05
0.00011349
0.000458756
0.00134053
0.00251824
0.00251884
0.00135815
0.000569414
1.28536e-08
1.32433e-08
1.36465e-08
1.39861e-08
1.42487e-08
1.45001e-08
1.57392e-08
2.94434e-08
1.71024e-07
1.44935e-06
1.13577e-05
7.55834e-05
0.000410549
0.00173368
0.00528441
0.0102662
0.0102747
0.00535738
0.00214251
-3.88453e-09
-7.25762e-09
-1.12714e-08
-1.5737e-08
-2.06614e-08
-2.59423e-08
-3.00374e-08
-1.48781e-08
2.05354e-07
2.29273e-06
1.88811e-05
0.000128834
0.000714925
0.00308016
0.00956084
0.0188306
0.0188504
0.00969511
0.00379891
-1.57236e-07
-1.68493e-07
-1.80988e-07
-1.93578e-07
-2.06086e-07
-2.18316e-07
-2.29142e-07
-2.26128e-07
-7.50999e-08
1.49021e-06
1.45973e-05
0.000105573
0.000611571
0.00273537
0.00876719
0.0176713
0.0176963
0.00889357
0.00336132
-2.59555e-07
-2.41632e-07
-2.19034e-07
-1.91445e-07
-1.58373e-07
-1.19523e-07
-7.6415e-08
-4.97479e-08
-2.37119e-07
-2.23655e-06
-1.69074e-05
-0.000104081
-0.00051532
-0.00196686
-0.00540392
-0.00961963
-0.00961338
-0.00547097
-0.00245675
1.32939e-06
1.49631e-06
1.68343e-06
1.88082e-06
2.0883e-06
2.30544e-06
2.52396e-06
2.65245e-06
1.78888e-06
-7.85836e-06
-8.3529e-05
-0.000570399
-0.003085
-0.0129192
-0.0390534
-0.0753876
-0.0754413
-0.0395866
-0.0159799
5.59219e-06
5.70463e-06
5.80476e-06
5.87109e-06
5.8963e-06
5.8732e-06
5.77386e-06
5.40789e-06
2.95117e-06
-1.75858e-05
-0.000175898
-0.0012083
-0.00663685
-0.0282683
-0.0868391
-0.169728
-0.169882
-0.088043
-0.0349066
-4.39199e-06
-6.01875e-06
-7.92943e-06
-1.01148e-05
-1.26159e-05
-1.54138e-05
-1.85011e-05
-2.2081e-05
-2.84968e-05
-5.89385e-05
-0.000274862
-0.00168591
-0.00920262
-0.039584
-0.122999
-0.242573
-0.242827
-0.124723
-0.0488094
-7.12415e-05
-7.59837e-05
-8.16436e-05
-8.77985e-05
-9.43886e-05
-0.000100214
-0.00010529
-0.000109768
-0.000115256
-0.000136729
-0.000292636
-0.00135126
-0.00718447
-0.0314949
-0.100131
-0.200964
-0.201216
-0.101531
-0.0386675
-9.8463e-05
-8.33107e-05
-6.27338e-05
-3.67324e-05
-1.02843e-05
1.65593e-05
4.37993e-05
7.15936e-05
0.000101484
0.000145825
0.000287277
0.000972441
0.00403099
0.0144752
0.0383568
0.0664436
0.0664168
0.0389338
0.0182362
0.000625703
0.000853053
0.00108281
0.00131332
0.00134833
0.00138339
0.00141854
0.00145459
0.0014993
0.00161975
0.00230664
0.00650746
0.0279717
0.111527
0.332838
0.639696
0.640163
0.337456
0.137768
0.00206595
0.00228371
0.00250483
0.00272561
0.00275965
0.00279366
0.0028278
0.00286375
0.00291844
0.00313971
0.00462531
0.0140709
0.0632318
0.257605
0.780242
1.51531
1.51657
0.79098
0.317669
0.00344791
0.00365173
0.0038608
0.00406965
0.00410186
0.00413405
0.00416645
0.00420182
0.00426801
0.00460961
0.00705513
0.0228359
0.105613
0.435135
1.32697
2.58897
2.59123
1.34518
0.536268
0.00475409
0.00494411
0.00514099
0.00533786
0.00536818
0.00539849
0.00542912
0.00546388
0.00554148
0.00600343
0.00941285
0.0315797
0.148374
0.615173
1.8834
3.68445
3.68773
1.90919
0.757868
0.00598378
0.00616022
0.00634485
0.0065297
0.00655811
0.00658652
0.00661532
0.00664922
0.00673605
0.00729886
0.0115213
0.0390949
0.184788
0.768594
2.35867
4.62201
4.62619
2.3909
0.946594
0.00713619
0.00729919
0.00747148
0.00764425
0.00767069
0.00769712
0.00772401
0.00775667
0.00784929
0.00848193
0.0132736
0.0446483
0.210726
0.877327
2.69583
5.28823
5.29303
2.73261
1.08022
0.00821089
0.00836078
0.00852083
0.00868165
0.0087063
0.00873097
0.00875616
0.00878754
0.00888284
0.00955409
0.0146652
0.0481822
0.225789
0.939379
2.88795
5.66824
5.6734
2.92729
1.15635
0.00921629
0.00935407
0.00950281
0.00965272
0.00967671
0.00970085
0.00972562
0.00975682
0.00985359
0.010541
0.0157833
0.0501828
0.232558
0.965664
2.96848
5.82746
5.83277
3.00888
1.18845
0.0101729
0.0102994
0.0104376
0.0105774
0.0106014
0.0106251
0.0106488
0.0106786
0.0107737
0.0114619
0.0167275
0.0513012
0.234645
0.97178
2.98594
5.86155
5.86688
3.02654
1.19572
0.0110322
0.0111363
0.0112492
0.0113611
0.011367
0.0113727
0.0113788
0.011391
0.0114686
0.0121381
0.0173747
0.0518524
0.234761
0.970205
2.9798
5.84893
5.85423
3.02025
1.19355
0.0114481
0.0114367
0.011436
0.0114369
0.0114374
0.0114379
0.0114389
0.0114462
0.011519
0.012182
0.0173981
0.0517646
0.234096
0.967212
2.97041
5.83034
5.83562
3.01072
1.18984
0.0114567
0.0114436
0.0114408
0.0114404
0.0114404
0.0114404
0.011441
0.0114479
0.0115201
0.0121813
0.0173857
0.0516753
0.233594
0.965026
2.96357
5.81681
5.82207
3.00378
1.18713
0.0114539
0.0114414
0.0114383
0.0114377
0.0114376
0.0114375
0.0114379
0.0114447
0.0115168
0.0121772
0.0173753
0.0516212
0.233296
0.96371
2.95937
5.80838
5.81363
2.99951
1.18551
0.0114484
0.0114366
0.0114332
0.0114326
0.0114323
0.0114322
0.0114327
0.0114394
0.0115115
0.0121725
0.017375
0.0516464
0.233438
0.964242
2.96077
5.81074
5.81599
3.00093
1.18618
0.0114433
0.0114321
0.0114287
0.011428
0.0114279
0.0114279
0.0114284
0.0114353
0.011508
0.0121726
0.0174025
0.0518511
0.234564
0.968985
2.97513
5.83846
5.84373
3.01551
1.19208
0.0114453
0.011435
0.0114317
0.0114313
0.0114315
0.0114318
0.0114327
0.0114401
0.0115139
0.0121864
0.0174757
0.0523157
0.237106
0.979863
3.00866
5.90408
5.90944
3.04958
1.2056
0.0114646
0.0114551
0.0114522
0.0114523
0.0114531
0.0114541
0.0114556
0.0114637
0.0115392
0.0122221
0.017591
0.0529639
0.240631
0.995116
3.05629
5.99821
6.0037
3.09796
1.22452
0.0115081
0.0114995
0.011497
0.0114977
0.0114991
0.0115007
0.0115029
0.0115117
0.0115884
0.012278
0.0176997
0.0534396
0.243166
1.00635
3.09234
6.07093
6.07655
3.1346
1.23841
0.0115697
0.0115616
0.0115592
0.01156
0.0115615
0.0115632
0.0115655
0.0115742
0.0116501
0.012332
0.0176972
0.0530939
0.241157
0.998304
3.06953
6.0294
6.035
3.11144
1.22829
0.0116195
0.0116113
0.011608
0.0116076
0.011608
0.0116086
0.0116097
0.0116169
0.0116878
0.0123355
0.0174416
0.0511588
0.230457
0.953036
2.93186
5.76283
5.76813
2.9716
1.17194
0.0116005
0.0115912
0.0115854
0.0115822
0.0115797
0.0115773
0.0115753
0.0115788
0.0116395
0.0122182
0.0168006
0.0470792
0.208183
0.857989
2.63957
5.19175
5.19635
2.67469
1.05382
0.0114382
0.0114267
0.0114167
0.0114089
0.0114016
0.0113944
0.0113874
0.011385
0.0114303
0.011907
0.0157118
0.0408511
0.174568
0.714063
2.19458
4.31852
4.32201
2.22269
0.875129
0.0110624
0.011048
0.0110328
0.011019
0.0110056
0.0109921
0.0109789
0.0109691
0.0109958
0.0113504
0.0142206
0.0331534
0.133633
0.538602
1.65025
3.2472
3.2493
1.66978
0.657452
0.0104332
0.0104157
0.0103951
0.010375
0.0103552
0.0103354
0.0103157
0.0102984
0.0103064
0.0105388
0.0124711
0.0251498
0.0920024
0.360335
1.09591
2.15377
2.15443
1.10674
0.436448
0.00955663
0.00953663
0.00951148
0.00948613
0.00946091
0.00943566
0.00941046
0.00938683
0.00937924
0.00950914
0.0106513
0.0180393
0.0563373
0.208225
0.622234
1.21773
1.21715
0.625626
0.24801
0.00848312
0.0084617
0.0084336
0.0084047
0.00837581
0.00834691
0.00831807
0.00829024
0.00827202
0.00833088
0.00892122
0.012597
0.0307755
0.100309
0.286122
0.552562
0.551086
0.284231
0.114439
0.00728901
0.00726734
0.0072381
0.00720762
0.00717707
0.00714653
0.00711607
0.00708632
0.00706267
0.00708263
0.00736568
0.00895901
0.0157901
0.0386608
0.0946713
0.173349
0.171349
0.0897515
0.0382545
0.0060531
0.00603218
0.00600337
0.00597304
0.00594257
0.00591213
0.00588179
0.00585207
0.00582707
0.00583224
0.00599177
0.00673663
0.00890773
0.0124932
0.0145709
0.014909
0.0126875
0.00838959
0.00609159
0.00484096
0.00482153
0.00479433
0.00476547
0.00473643
0.00470743
0.00467855
0.00465029
0.00462645
0.00462989
0.00476486
0.00533598
0.00655508
0.0061979
-0.00281685
-0.0187374
-0.0209734
-0.00916985
-0.00131335
0.00370256
0.00368517
0.00366049
0.00363414
0.00360759
0.0035811
0.00355474
0.00352901
0.00350763
0.00351335
0.00365316
0.00426545
0.00578456
0.00687139
0.00215244
-0.00750784
-0.00961965
-0.00380386
0.000174054
0.00267838
0.0026635
0.00264213
0.0026192
0.00259609
0.00257304
0.00255014
0.00252785
0.00250961
0.00251686
0.0026539
0.00327758
0.0050395
0.00763581
0.00787269
0.00566558
0.00378762
0.00262604
0.00212657
0.00180423
0.00179223
0.00177485
0.00175613
0.00173726
0.00171847
0.00169984
0.00168175
0.00166707
0.00167396
0.00179196
0.00233753
0.00395332
0.00673845
0.00868131
0.00938971
0.00783942
0.00436814
0.00236466
0.00110845
0.00109953
0.00108652
0.00107248
0.00105833
0.00104427
0.00103036
0.00101689
0.00100599
0.00101126
0.0010999
0.00151044
0.00273185
0.00485979
0.00641736
0.00709904
0.00593749
0.00318472
0.00159269
0.000603192
0.000597225
0.000588489
0.000579044
0.000569542
0.000560126
0.000550837
0.00054186
0.000534601
0.000537937
0.000595781
0.000863134
0.00165054
0.00297452
0.00376542
0.00386914
0.00310088
0.00162294
0.000789886
0.000277275
0.000273802
0.000268703
0.00026319
0.000257658
0.000252194
0.000246823
0.000241649
0.00023745
0.000239166
0.000271216
0.000419459
0.000852607
0.00155787
0.00188814
0.00177895
0.001347
0.000681195
0.000318186
9.72921e-05
9.56211e-05
9.31646e-05
9.05122e-05
8.7861e-05
8.52553e-05
8.27071e-05
8.02617e-05
7.82636e-05
7.89033e-05
9.30485e-05
0.000159008
0.000352098
0.000665276
0.000803915
0.000741096
0.000548067
0.000263881
0.000110292
1.75657e-05
1.69725e-05
1.6101e-05
1.51638e-05
1.4234e-05
1.33283e-05
1.24509e-05
1.16144e-05
1.0919e-05
1.1007e-05
1.50946e-05
3.46595e-05
9.28669e-05
0.000190274
0.000243162
0.00024157
0.000184555
8.34789e-05
2.73995e-05
-6.27716e-06
-6.37096e-06
-6.50757e-06
-6.65144e-06
-6.78934e-06
-6.91811e-06
-7.03743e-06
-7.14756e-06
-7.2491e-06
-7.34099e-06
-7.39889e-06
-7.25025e-06
-6.19961e-06
-2.74928e-06
4.26594e-06
1.3734e-05
1.3315e-05
2.96044e-06
-3.40434e-06
-7.04543e-06
-6.99201e-06
-6.91252e-06
-6.82482e-06
-6.73449e-06
-6.64277e-06
-6.55024e-06
-6.45971e-06
-6.39191e-06
-6.47705e-06
-7.35784e-06
-1.12914e-05
-2.27196e-05
-4.13997e-05
-5.06228e-05
-4.85401e-05
-3.72299e-05
-1.90517e-05
-9.0334e-06
-2.85725e-06
-2.80705e-06
-2.73295e-06
-2.65255e-06
-2.57176e-06
-2.49197e-06
-2.41358e-06
-2.33821e-06
-2.27807e-06
-2.31097e-06
-2.82524e-06
-5.20503e-06
-1.2258e-05
-2.4194e-05
-3.13525e-05
-3.23776e-05
-2.55442e-05
-1.22469e-05
-4.76751e-06
-2.31684e-07
-2.13971e-07
-1.87993e-07
-1.6013e-07
-1.32611e-07
-1.05957e-07
-8.02828e-08
-5.59159e-08
-3.54286e-08
-3.5521e-08
-1.4076e-07
-6.5699e-07
-2.2164e-06
-4.89117e-06
-6.52881e-06
-6.83886e-06
-5.33385e-06
-2.30488e-06
-6.08324e-07
3.91364e-07
3.91019e-07
3.90408e-07
3.89561e-07
3.88452e-07
3.87076e-07
3.85454e-07
3.83735e-07
3.82994e-07
3.89926e-07
4.37481e-07
6.41601e-07
1.23511e-06
2.24054e-06
2.8935e-06
3.06345e-06
2.49376e-06
1.30863e-06
6.31288e-07
2.07711e-07
2.04362e-07
1.99402e-07
1.93995e-07
1.88534e-07
1.83109e-07
1.77752e-07
1.7259e-07
1.6858e-07
1.71802e-07
2.12629e-07
3.99291e-07
9.50661e-07
1.87789e-06
2.41131e-06
2.45106e-06
1.91498e-06
9.1165e-07
3.5104e-07
1.30036e-08
1.1711e-08
9.81773e-09
7.78871e-09
5.78687e-09
3.85043e-09
1.98774e-09
2.21506e-10
-1.26977e-09
-1.32486e-09
5.93797e-09
4.16884e-08
1.48568e-07
3.23891e-07
3.99048e-07
3.61291e-07
2.54701e-07
9.90196e-08
1.63362e-08
-3.05688e-08
-3.0449e-08
-3.02633e-08
-3.00472e-08
-2.98109e-08
-2.95567e-08
-2.92872e-08
-2.90177e-08
-2.88589e-08
-2.95067e-08
-3.44064e-08
-5.57346e-08
-1.17888e-07
-2.21919e-07
-2.82799e-07
-2.88751e-07
-2.28461e-07
-1.14592e-07
-5.06044e-08
-1.13273e-08
-1.10687e-08
-1.06869e-08
-1.02725e-08
-9.85648e-09
-9.4462e-09
-9.04392e-09
-8.65832e-09
-8.35483e-09
-8.55202e-09
-1.13467e-08
-2.42173e-08
-6.21475e-08
-1.24644e-07
-1.54831e-07
-1.47174e-07
-1.09726e-07
-4.98235e-08
-1.72095e-08
2.08463e-09
2.13442e-09
2.20629e-09
2.2817e-09
2.35396e-09
2.42152e-09
2.48423e-09
2.54248e-09
2.59854e-09
2.66481e-09
2.79559e-09
3.15805e-09
4.03529e-09
5.4217e-09
6.61916e-09
7.30555e-09
6.4929e-09
4.4669e-09
3.22433e-09
2.29242e-09
2.26104e-09
2.21433e-09
2.163e-09
2.11067e-09
2.0582e-09
2.00593e-09
1.95545e-09
1.91855e-09
1.97025e-09
2.48507e-09
4.79422e-09
1.15548e-08
2.26674e-08
2.80677e-08
2.67455e-08
2.00805e-08
9.39818e-09
3.56508e-09
7.9788e-11
6.57862e-11
4.53287e-11
2.3444e-11
1.89761e-12
-1.88956e-11
-3.88476e-11
-5.77402e-11
-7.38442e-11
-7.57907e-11
-5.34069e-12
3.50283e-10
1.43324e-09
3.27722e-09
4.29102e-09
4.30413e-09
3.24936e-09
1.3177e-09
2.5555e-10
-3.5095e-10
-3.48006e-10
-3.43562e-10
-3.38587e-10
-3.33394e-10
-3.28062e-10
-3.22635e-10
-3.17349e-10
-3.13939e-10
-3.23416e-10
-4.00636e-10
-7.40202e-10
-1.72976e-09
-3.35471e-09
-4.15138e-09
-3.96881e-09
-2.99502e-09
-1.42555e-09
-5.66248e-10
-4.96355e-11
-4.7103e-11
-4.33896e-11
-3.93938e-11
-3.54285e-11
-3.15674e-11
-2.78295e-11
-2.42751e-11
-2.13686e-11
-2.21265e-11
-4.18705e-11
-1.36177e-10
-4.19932e-10
-9.03429e-10
-1.18359e-09
-1.21159e-09
-9.36902e-10
-4.11402e-10
-1.19488e-10
5.04223e-11
5.015e-11
4.97305e-11
4.92484e-11
4.87297e-11
4.81813e-11
4.7609e-11
4.70466e-11
4.67451e-11
4.82931e-11
5.9605e-11
1.08777e-10
2.51987e-10
4.88549e-10
6.10746e-10
5.95382e-10
4.55242e-10
2.18641e-10
8.81058e-11
9.04896e-12
8.65243e-12
8.07058e-12
7.44347e-12
6.81976e-12
6.21096e-12
5.62016e-12
5.05772e-12
4.60313e-12
4.77213e-12
8.18453e-12
2.43466e-11
7.29385e-11
1.55894e-10
2.04684e-10
2.10835e-10
1.63884e-10
7.27117e-11
2.19885e-11
-7.73236e-12
-7.69042e-12
-7.62584e-12
-7.55162e-12
-7.47182e-12
-7.38748e-12
-7.29955e-12
-7.21363e-12
-7.17148e-12
-7.43822e-12
-9.3382e-12
-1.75914e-11
-4.17244e-11
-8.20559e-11
-1.04528e-10
-1.04936e-10
-8.15182e-11
-3.89974e-11
-1.53304e-11
-1.13461e-12
-1.07608e-12
-9.9034e-13
-8.98074e-13
-8.06484e-13
-7.17271e-13
-6.3088e-13
-5.48762e-13
-4.82138e-13
-5.04022e-13
-9.86174e-13
-3.27966e-12
-1.01781e-11
-2.18933e-11
-2.84614e-11
-2.87646e-11
-2.20685e-11
-9.61856e-12
-2.74807e-12
1.20723e-12
1.19764e-12
1.18315e-12
1.16687e-12
1.14982e-12
1.13224e-12
1.11432e-12
1.09701e-12
1.08756e-12
1.1321e-12
1.46191e-12
2.90439e-12
7.13994e-12
1.42582e-11
1.83174e-11
1.85719e-11
1.44741e-11
6.84148e-12
2.58818e-12
6.01291e-14
5.27666e-14
4.20293e-14
3.05413e-14
1.92202e-14
8.28161e-15
-2.22596e-15
-1.21669e-14
-2.04695e-14
-2.00902e-14
2.50667e-14
2.46719e-13
9.16156e-13
2.03609e-12
2.57267e-12
2.43986e-12
1.78103e-12
7.13045e-13
1.39211e-13
-1.61411e-13
-1.59159e-13
-1.55807e-13
-1.52118e-13
-1.48347e-13
-1.44558e-13
-1.40779e-13
-1.37151e-13
-1.34729e-13
-1.40282e-13
-1.87881e-13
-3.99883e-13
-1.02516e-12
-2.07244e-12
-2.6404e-12
-2.62719e-12
-2.01881e-12
-9.3361e-13
-3.34295e-13
3.01337e-14
3.06501e-14
3.13885e-14
3.21571e-14
3.28866e-14
3.3561e-14
3.41806e-14
3.47643e-14
3.54505e-14
3.71033e-14
4.39799e-14
7.10618e-14
1.48346e-13
2.78062e-13
3.59745e-13
3.77322e-13
3.03679e-13
1.54858e-13
7.02502e-14
2.01931e-14
1.96882e-14
1.89448e-14
1.81378e-14
1.73274e-14
1.6528e-14
1.57444e-14
1.49978e-14
1.44492e-14
1.51398e-14
2.23405e-14
5.50668e-14
1.52053e-13
3.13645e-13
3.94986e-13
3.81961e-13
2.87007e-13
1.27992e-13
4.13258e-14
-9.70238e-15
-9.68095e-15
-9.64593e-15
-9.60264e-15
-9.55232e-15
-9.49539e-15
-9.433e-15
-9.37364e-15
-9.38125e-15
-9.86376e-15
-1.28637e-14
-2.56715e-14
-6.29704e-14
-1.24804e-13
-1.57063e-13
-1.53816e-13
-1.17503e-13
-5.5327e-14
-2.10818e-14
-1.72517e-15
-1.65201e-15
-1.54492e-15
-1.42961e-15
-1.31497e-15
-1.20309e-15
-1.09457e-15
-9.91708e-16
-9.12339e-16
-9.72668e-16
-1.76484e-15
-5.4409e-15
-1.64349e-14
-3.49452e-14
-4.46933e-14
-4.40372e-14
-3.33298e-14
-1.45389e-14
-4.2625e-15
1.2642e-15
1.25235e-15
1.23465e-15
1.21502e-15
1.19473e-15
1.17411e-15
1.15336e-15
1.13371e-15
1.12445e-15
1.18527e-15
1.61658e-15
3.49606e-15
9.00559e-15
1.81556e-14
2.28411e-14
2.22216e-14
1.68473e-14
7.75825e-15
2.77674e-15
-8.14072e-17
-8.36002e-17
-8.67578e-17
-9.00745e-17
-9.3264e-17
-9.62609e-17
-9.90616e-17
-1.01707e-16
-1.04485e-16
-1.09146e-16
-1.24063e-16
-1.77437e-16
-3.19726e-16
-5.26561e-16
-5.55399e-16
-3.94849e-16
-2.48229e-16
-1.48507e-16
-1.01495e-16
)
;

boundaryField
{
    top
    {
        type            zeroGradient;
    }
    left
    {
        type            fixedValue;
        value           uniform 0;
    }
    bottom
    {
        type            zeroGradient;
    }
    right
    {
        type            zeroGradient;
    }
    frontAndBack
    {
        type            empty;
    }
}


// ************************************************************************* //
