/*--------------------------------*- C++ -*----------------------------------*\
| =========                 |                                                 |
| \\      /  F ield         | OpenFOAM: The Open Source CFD Toolbox           |
|  \\    /   O peration     | Version:  v1806                                 |
|   \\  /    A nd           | Web:      www.OpenFOAM.com                      |
|    \\/     M anipulation  |                                                 |
\*---------------------------------------------------------------------------*/
FoamFile
{
    version     2.0;
    format      ascii;
    class       volScalarField;
    location    "0.085";
    object      T;
}
// * * * * * * * * * * * * * * * * * * * * * * * * * * * * * * * * * * * * * //

dimensions      [0 0 0 1 0 0 0];


internalField   nonuniform List<scalar> 
1881
(
5.07944e-91
3.58117e-89
2.44524e-87
1.58779e-85
9.74827e-84
5.61927e-82
3.01495e-80
1.4892e-78
6.67571e-77
2.66455e-75
9.2221e-74
2.66255e-72
6.0316e-71
9.60245e-70
8.32438e-69
9.17132e-69
9.16537e-69
8.27007e-69
9.60471e-70
8.37257e-89
6.03481e-87
4.21542e-85
2.80313e-83
1.76438e-81
1.04392e-79
5.75601e-78
2.92533e-76
1.35089e-74
5.56103e-73
1.98725e-71
5.9302e-70
1.38985e-68
2.29076e-67
2.0549e-66
2.25746e-66
2.25609e-66
2.04194e-66
2.2871e-67
1.37168e-86
1.01126e-84
7.23052e-83
4.92695e-81
3.18157e-79
1.93359e-77
1.09647e-75
5.73797e-74
2.7317e-72
1.16064e-70
4.28562e-69
1.32285e-67
3.21004e-66
5.48211e-65
5.0932e-64
5.5792e-64
5.57603e-64
5.06223e-64
5.46367e-65
2.21897e-84
1.6744e-82
1.22634e-80
8.56985e-79
5.68225e-77
3.55031e-75
2.07234e-73
1.11769e-71
5.49046e-70
2.40986e-68
9.20263e-67
2.94094e-65
7.39617e-64
1.3101e-62
1.26198e-61
1.37842e-61
1.37769e-61
1.25459e-61
1.30347e-62
3.5422e-82
2.73767e-80
2.05549e-78
1.4743e-76
1.00459e-74
6.45858e-73
3.88399e-71
2.1608e-69
1.09622e-67
4.97492e-66
1.96656e-64
6.51283e-63
1.69918e-61
3.12505e-60
3.12466e-59
3.40315e-59
3.40148e-59
3.1071e-59
3.10416e-60
5.57581e-80
4.41708e-78
3.40247e-76
2.50691e-74
1.75698e-72
1.16331e-70
7.2137e-69
4.14333e-67
2.17277e-65
1.02045e-63
4.17947e-62
1.4358e-60
3.89012e-59
7.43666e-58
7.72782e-57
8.39228e-57
8.38847e-57
7.68622e-57
7.37544e-58
8.64791e-78
7.02728e-76
5.55803e-74
4.21016e-72
3.03754e-70
2.07301e-68
1.32666e-66
7.87381e-65
4.2718e-63
2.07818e-61
8.8274e-60
3.1489e-58
8.8694e-57
1.7645e-55
1.90817e-54
2.06625e-54
2.06538e-54
1.89835e-54
1.74739e-55
1.32037e-75
1.10143e-73
8.95187e-72
6.97726e-70
5.18642e-68
3.65142e-66
2.41373e-64
1.48157e-62
8.32343e-61
4.19831e-59
1.8513e-57
6.86463e-56
2.01244e-54
4.17181e-53
4.70208e-52
5.07683e-52
5.07488e-52
4.67903e-52
4.12553e-53
1.98253e-73
1.69903e-71
1.42014e-69
1.13985e-67
8.73669e-66
6.35068e-64
4.33992e-62
2.75745e-60
1.6056e-58
8.40488e-57
3.85158e-55
1.48622e-53
4.54049e-52
9.82223e-51
1.15586e-49
1.24434e-49
1.2439e-49
1.15048e-49
9.7002e-51
2.92402e-71
2.57641e-69
2.21644e-67
1.83344e-65
1.45022e-63
1.08929e-61
7.70212e-60
5.07007e-58
3.06271e-56
1.66556e-54
7.94052e-53
3.19245e-51
1.01782e-49
2.3015e-48
2.83361e-47
3.04148e-47
3.04051e-47
2.8211e-47
2.26996e-48
4.2306e-69
3.83543e-67
3.3986e-65
2.89962e-63
2.36875e-61
1.84002e-59
1.34731e-57
9.19698e-56
5.7693e-54
3.26286e-52
1.62024e-50
6.79635e-49
2.26488e-47
5.36394e-46
6.92677e-45
7.41257e-45
7.41043e-45
6.89788e-45
5.28367e-46
5.99539e-67
5.59654e-65
5.11177e-63
4.50165e-61
3.80105e-59
3.05602e-57
2.3193e-55
1.64329e-53
1.07157e-51
6.30973e-50
3.26775e-48
1.4323e-46
4.99864e-45
1.24287e-43
1.68856e-42
1.80143e-42
1.80096e-42
1.68193e-42
1.2227e-43
8.30725e-65
7.99008e-63
7.52795e-61
6.84789e-59
5.98104e-57
4.98123e-55
3.92176e-53
2.88696e-51
1.95904e-49
1.20249e-47
6.50447e-46
2.98448e-44
1.09326e-42
2.86222e-41
4.10636e-40
4.36699e-40
4.36598e-40
4.09123e-40
2.812e-41
1.12314e-62
1.11379e-60
1.08318e-58
1.01852e-56
9.20897e-55
7.95131e-53
6.50009e-51
4.97648e-49
3.51826e-47
2.25432e-45
1.27578e-43
6.14094e-42
2.36771e-40
6.55029e-39
9.9697e-38
1.05678e-37
1.05656e-37
9.93534e-38
6.42612e-39
1.47816e-60
1.51228e-58
1.51907e-56
1.47755e-54
1.38399e-52
1.23991e-50
1.05346e-48
8.39716e-47
6.19296e-45
4.14878e-43
2.46139e-41
1.24615e-39
5.07419e-38
1.48993e-36
2.41948e-35
2.55587e-35
2.55541e-35
2.41171e-35
1.45936e-36
1.88857e-58
1.99447e-56
2.07056e-54
2.08466e-52
2.02443e-50
1.88347e-48
1.66478e-46
1.38322e-44
1.06573e-42
7.47839e-41
4.66243e-39
2.49059e-37
1.07547e-35
3.36992e-34
5.87926e-33
6.1885e-33
6.18754e-33
5.86175e-33
3.2949e-34
2.335e-56
2.54672e-54
2.73403e-52
2.85109e-50
2.87257e-48
2.77779e-46
2.55695e-44
2.2174e-42
1.78778e-40
1.31694e-38
8.65317e-37
4.89595e-35
2.25346e-33
7.58516e-32
1.43333e-30
1.5031e-30
1.5029e-30
1.42939e-30
7.40164e-32
2.78339e-54
3.13656e-52
3.48381e-50
3.76515e-48
3.93865e-46
3.96219e-44
3.80251e-42
3.44679e-40
2.91373e-38
2.25907e-36
1.5699e-34
9.45263e-33
4.66634e-31
1.70051e-29
3.51131e-28
3.66811e-28
3.6677e-28
3.50249e-28
1.65594e-29
3.185e-52
3.70953e-50
4.26466e-48
4.77933e-46
5.19446e-44
5.44108e-42
5.45089e-40
5.17324e-38
4.59577e-36
3.76211e-34
2.77692e-32
1.78956e-30
9.54505e-29
3.79838e-27
8.64245e-26
8.99366e-26
8.99283e-26
8.62286e-26
3.69188e-27
3.48073e-50
4.19084e-48
4.98849e-46
5.79975e-44
6.5536e-42
7.15472e-40
7.49222e-38
7.4592e-36
6.9827e-34
6.05787e-32
4.77391e-30
3.31517e-28
1.9262e-26
8.44072e-25
2.13022e-23
2.20852e-23
2.20836e-23
2.12594e-23
8.19354e-25
3.6109e-48
4.49451e-46
5.54027e-44
6.6847e-42
7.85803e-40
8.94986e-38
9.81097e-36
1.0269e-33
1.01617e-31
9.3847e-30
7.94368e-28
5.98959e-26
3.82223e-24
1.85712e-22
5.22132e-21
5.39433e-21
5.39401e-21
5.21223e-21
1.80218e-22
3.52998e-46
4.54141e-44
5.79704e-42
7.2602e-40
8.883e-38
1.05648e-35
1.21428e-33
1.33947e-31
1.40619e-29
1.38957e-27
1.27191e-25
1.04936e-23
7.40637e-22
4.00895e-20
1.26161e-18
1.29914e-18
1.29908e-18
1.25975e-18
3.89276e-20
3.22324e-44
4.28384e-42
5.66064e-40
7.35809e-38
9.37304e-36
1.16504e-33
1.40617e-31
1.63898e-29
1.83266e-27
1.94856e-25
1.94187e-23
1.76484e-21
1.38458e-19
8.38624e-18
2.99574e-16
3.07459e-16
3.07449e-16
2.99204e-16
8.14795e-18
2.71924e-42
3.72959e-40
5.09748e-38
6.87353e-36
9.11489e-34
1.18462e-31
1.50347e-29
1.85625e-27
2.21953e-25
2.55276e-23
2.78601e-21
2.80261e-19
2.45387e-17
1.68161e-15
7.12396e-14
7.28239e-14
7.28222e-14
7.11657e-14
1.63107e-15
2.09088e-40
2.95421e-38
4.16973e-36
5.82494e-34
8.03409e-32
1.09149e-29
1.45754e-27
1.90961e-25
2.44924e-23
3.05929e-21
3.66986e-19
4.09871e-17
4.03646e-15
3.23673e-13
1.80534e-11
1.83576e-11
1.83574e-11
1.80378e-11
3.11908e-13
1.44027e-38
2.09006e-36
3.03781e-34
4.38484e-32
6.27566e-30
8.89603e-28
1.24853e-25
1.7355e-23
2.3892e-21
3.24384e-19
4.27979e-17
5.32604e-15
6.03016e-13
6.13211e-11
5.27833e-09
5.33579e-09
5.33575e-09
5.27505e-09
5.86204e-11
8.69158e-37
1.2891e-34
1.91983e-32
2.84885e-30
4.20952e-28
6.19494e-26
9.09289e-24
1.33459e-21
1.96261e-19
2.88219e-17
4.16862e-15
5.82343e-13
7.94613e-11
1.16224e-08
1.73291e-06
1.74397e-06
1.74396e-06
1.73242e-06
1.12111e-08
4.46232e-35
6.70969e-33
1.01506e-30
1.53404e-28
2.31619e-26
3.49812e-24
5.29991e-22
8.09135e-20
1.24986e-17
1.95104e-15
3.0497e-13
4.78206e-11
8.19349e-09
1.86422e-06
0.000527503
0.000529356
0.000529356
0.0005275
1.87017e-06
1.87477e-33
2.8198e-31
4.26861e-29
6.45736e-27
9.76134e-25
1.4759e-22
2.23753e-20
3.41634e-18
5.28042e-16
8.26857e-14
1.29452e-11
1.95437e-09
2.67556e-07
3.04116e-05
0.00250903
0.00253917
0.00253917
0.00250903
3.06757e-05
6.12738e-32
9.01868e-30
1.33148e-27
1.95473e-25
2.84669e-23
4.09845e-21
5.8031e-19
8.01323e-17
1.06495e-14
1.33592e-12
1.54009e-10
1.57474e-08
1.36161e-06
9.29073e-05
0.0044523
0.00454383
0.00454383
0.00445231
9.42655e-05
1.46787e-30
2.04563e-28
2.83186e-26
3.84766e-24
5.09731e-22
6.52864e-20
7.99856e-18
9.25151e-16
9.94297e-14
9.7394e-12
8.48948e-10
6.3855e-08
3.97313e-06
0.000191902
0.00644315
0.00663101
0.00663101
0.00644321
0.000195871
2.46169e-29
3.13298e-27
3.90883e-25
4.71358e-23
5.45145e-21
5.99261e-19
6.19597e-17
5.9521e-15
5.23598e-13
4.14437e-11
2.88722e-09
1.71986e-07
8.41256e-06
0.000317695
0.00832141
0.00863052
0.00863052
0.00832157
0.000326104
2.9247e-28
3.34139e-26
3.70614e-24
3.93165e-22
3.95943e-20
3.75308e-18
3.31574e-16
2.69924e-14
1.99738e-12
1.32129e-10
7.65026e-09
3.76978e-07
1.51975e-05
0.000471889
0.0101674
0.0106237
0.0106237
0.0101677
0.000487084
2.57992e-27
2.63717e-25
2.60074e-23
2.43659e-21
2.15353e-19
1.78126e-17
1.36611e-15
9.60945e-14
6.11896e-12
3.4706e-10
1.71758e-08
7.21536e-07
2.47494e-05
0.00065329
0.0119869
0.0126148
0.0126148
0.0119877
0.000678037
1.78392e-26
1.63953e-24
1.44758e-22
1.20834e-20
9.47362e-19
6.92366e-17
4.67543e-15
2.88689e-13
1.60936e-11
7.97331e-10
3.44022e-08
1.25813e-06
3.75342e-05
0.000861789
0.0137906
0.0146136
0.0146136
0.0137918
0.00089932
1.0008e-25
8.34558e-24
6.6677e-22
5.0187e-20
3.53613e-18
2.31523e-16
1.39655e-14
7.68204e-13
3.80585e-11
1.67205e-09
6.38559e-08
2.06396e-06
5.43719e-05
0.00110252
0.0156251
0.0166712
0.0166713
0.0156271
0.00115689
4.58528e-25
3.48704e-23
2.53784e-21
1.73654e-19
1.1102e-17
6.58396e-16
3.5914e-14
1.78382e-12
7.96905e-11
3.15329e-09
1.08352e-07
3.14866e-06
7.455e-05
0.00135945
0.0173788
0.0186607
0.0186608
0.017382
0.001434
1.82605e-24
1.274e-22
8.50229e-21
5.32707e-19
3.11427e-17
1.68674e-15
8.39334e-14
3.79905e-12
1.54517e-10
5.5619e-09
1.7374e-07
4.58795e-06
9.8714e-05
0.00163733
0.0191018
0.020636
0.0206362
0.0191064
0.00173604
6.49326e-24
4.17807e-22
2.57141e-20
1.48422e-18
7.98577e-17
3.97716e-15
1.81831e-13
7.55607e-12
2.81969e-10
9.30717e-09
2.66495e-07
6.44951e-06
0.000127207
0.00193638
0.0208048
0.0226079
0.0226081
0.0208113
0.00206359
2.10813e-23
1.25736e-21
7.1736e-20
3.83476e-18
1.90926e-16
8.79225e-15
3.71432e-13
1.4254e-11
4.90975e-10
1.49529e-08
3.94959e-07
8.81755e-06
0.000160502
0.00225781
0.0224996
0.0245885
0.0245889
0.0225084
0.00241831
6.30073e-23
3.50434e-21
1.86453e-19
9.28638e-18
4.30391e-16
1.84341e-14
7.23755e-13
2.57949e-11
8.24659e-10
2.32993e-08
5.70717e-07
1.18149e-05
0.000199496
0.00260659
0.0242149
0.0266108
0.0266113
0.0242267
0.00280609
1.70903e-22
8.90449e-21
4.44033e-19
2.07149e-17
8.9877e-16
3.6019e-14
1.32256e-12
4.40638e-11
1.31638e-09
3.47442e-08
7.94912e-07
1.53713e-05
0.000242545
0.00296545
0.0258709
0.0285793
0.0285801
0.0258863
0.00320799
4.33992e-22
2.1256e-20
9.9701e-19
4.37307e-17
1.78317e-15
6.71349e-14
2.31501e-12
7.24119e-11
2.03045e-09
5.02925e-08
1.07978e-06
1.95973e-05
0.000290405
0.00333933
0.027499
0.0305295
0.0305305
0.0275186
0.00362973
1.04429e-21
4.82215e-20
2.13398e-18
8.82798e-17
3.39402e-15
1.20447e-13
3.91393e-12
1.15343e-10
3.0467e-09
7.10825e-08
1.4376e-06
2.45844e-05
0.000343496
0.00372987
0.0291116
0.032475
0.0324763
0.0291362
0.00407337
2.40491e-21
1.0498e-19
4.39504e-18
1.71949e-16
6.25012e-15
2.09648e-13
6.43778e-12
1.79253e-10
4.4731e-09
9.85908e-08
1.88389e-06
3.04485e-05
0.000402383
0.00413929
0.0307207
0.0344293
0.034431
0.0307512
0.00454167
5.30888e-21
2.19796e-19
8.73343e-18
3.24161e-16
1.11746e-14
3.55361e-13
1.03425e-11
2.72869e-10
6.45083e-09
1.34686e-07
2.43802e-06
3.73392e-05
0.000467909
0.00457151
0.0323438
0.0364127
0.036415
0.0323811
0.00503942
1.10966e-20
4.37016e-19
1.65315e-17
5.84027e-16
1.9158e-14
5.79622e-13
1.60463e-11
4.02638e-10
9.05196e-09
1.79723e-07
3.09399e-06
4.50801e-05
0.000537814
0.00501026
0.0339182
0.038349
0.0383519
0.0339632
0.00554807
2.23687e-20
8.39549e-19
3.02943e-17
1.02074e-15
3.19298e-14
9.21086e-13
2.43104e-11
5.81522e-10
1.24629e-08
2.359e-07
3.87232e-06
5.38191e-05
0.000612939
0.00545558
0.0345499
0.039343
0.0393467
0.0346037
0.00606852
4.38654e-20
1.57135e-18
5.4174e-17
1.74384e-15
5.21082e-14
1.43575e-12
3.61916e-11
8.26793e-10
1.69226e-08
3.05941e-07
4.79772e-06
6.37277e-05
0.000693923
0.00588614
0.0341295
0.0392633
0.0392678
0.0341932
0.00658007
8.39506e-20
2.87156e-18
9.47064e-17
2.91714e-15
8.34158e-14
2.19939e-12
5.30497e-11
1.15957e-09
2.27083e-08
3.92819e-07
5.89517e-06
7.49536e-05
0.000780881
0.00629919
0.0336732
0.0391232
0.0391287
0.0337482
0.00708007
1.58408e-19
5.13216e-18
1.61355e-16
4.75104e-15
1.30073e-13
3.28644e-12
7.59964e-11
1.59297e-09
2.99206e-08
4.96503e-07
7.14901e-06
8.72134e-05
0.000870821
0.00668783
0.0333006
0.0390387
0.0390453
0.0333877
0.00755866
3.30116e-19
9.67286e-18
2.81748e-16
7.79286e-15
2.02202e-13
4.86874e-12
1.07657e-10
2.16228e-09
3.89651e-08
6.20845e-07
8.58795e-06
0.000100655
0.000964113
0.00705559
0.0329408
0.0389442
0.0389522
0.0330414
0.00801971
1.02379e-18
2.45284e-17
6.05809e-16
1.4664e-14
3.42458e-13
7.58627e-12
1.56779e-10
2.97465e-09
5.0996e-08
7.76508e-07
1.02938e-05
0.000115775
0.00106312
0.00741604
0.0326291
0.0389055
0.038915
0.0327449
0.00847916
5.44664e-18
1.09005e-16
2.2098e-15
4.35625e-14
8.35811e-13
1.55425e-11
2.77221e-10
4.66765e-09
7.27297e-08
1.02543e-06
1.27561e-05
0.000135805
0.0011852
0.00784556
0.0325909
0.0393667
0.0393784
0.0327266
0.00903075
3.53111e-17
6.6328e-16
1.23256e-14
2.1613e-13
3.57543e-12
5.58165e-11
8.22111e-10
1.13991e-08
1.47851e-07
1.77119e-06
1.91926e-05
0.000182345
0.00144852
0.0088477
0.0343458
0.0433492
0.0433666
0.0345279
0.0102962
2.12878e-16
3.94154e-15
7.16976e-14
1.21771e-12
1.92267e-11
2.8094e-10
3.78038e-09
4.65914e-08
5.226e-07
5.2918e-06
4.78111e-05
0.000378155
0.00252917
0.0133297
0.0469514
0.0685614
0.0686039
0.0473289
0.0158587
1.07699e-15
1.98902e-14
3.60305e-13
6.07907e-12
9.50093e-11
1.36706e-09
1.79805e-08
2.1437e-07
2.29357e-06
2.17526e-05
0.000180045
0.00127352
0.00746122
0.0342976
0.110588
0.193995
0.194153
0.111859
0.0417583
4.31128e-15
7.96275e-14
1.44192e-12
2.43056e-11
3.79202e-10
5.44007e-09
7.12153e-08
8.42948e-07
8.92181e-06
8.32789e-05
0.000673595
0.00461218
0.0258717
0.113074
0.353164
0.671168
0.671759
0.357768
0.138944
1.28164e-14
2.36855e-13
4.29102e-12
7.2353e-11
1.12891e-09
1.61919e-08
2.11827e-07
2.50411e-06
2.64463e-05
0.000246012
0.00197951
0.0134508
0.0746615
0.322303
0.999839
1.94326
1.945
1.01327
0.396962
2.61095e-14
4.82754e-13
8.74972e-12
1.47592e-10
2.3036e-09
3.30485e-08
4.32404e-07
5.11141e-06
5.39669e-05
0.000501703
0.00403244
0.0273529
0.15145
0.651893
2.01971
3.95006
3.95359
2.04701
0.803338
3.46166e-14
6.40032e-13
1.16e-11
1.95662e-10
3.05373e-09
4.3807e-08
5.73109e-07
6.77369e-06
7.15027e-05
0.000664532
0.00533895
0.0361939
0.200242
0.861099
2.66641
5.22215
5.22683
2.70253
1.06133
3.78577e-14
6.99916e-13
1.26846e-11
2.13945e-10
3.33889e-09
4.78947e-08
6.26542e-07
7.40462e-06
7.81546e-05
0.000726253
0.00583372
0.0395374
0.218656
0.939829
2.90903
5.69932
5.70442
2.94849
1.15848
3.8735e-14
7.16134e-13
1.29785e-11
2.18903e-10
3.41625e-09
4.90044e-08
6.41056e-07
7.57605e-06
7.99619e-05
0.00074301
0.00596779
0.04044
0.223594
0.960727
2.97274
5.82474
5.82996
3.0131
1.18431
3.89334e-14
7.19825e-13
1.30458e-11
2.20045e-10
3.43419e-09
4.9263e-08
6.44453e-07
7.61628e-06
8.03862e-05
0.000746931
0.00599888
0.0406455
0.224683
0.965114
2.98543
5.84992
5.85518
3.02599
1.18979
3.89938e-14
7.20971e-13
1.30671e-11
2.20411e-10
3.44e-09
4.93476e-08
6.45569e-07
7.62949e-06
8.05243e-05
0.00074818
0.0060084
0.0407041
0.224956
0.965994
2.98731
5.8539
5.85916
3.02794
1.19094
3.90409e-14
7.21861e-13
1.30835e-11
2.20692e-10
3.44443e-09
4.94113e-08
6.46396e-07
7.63908e-06
8.06218e-05
0.00074903
0.00601452
0.0407384
0.225091
0.966278
2.98741
5.85432
5.85959
3.02806
1.19136
3.90991e-14
7.22941e-13
1.3103e-11
2.21019e-10
3.44946e-09
4.94819e-08
6.47292e-07
7.64919e-06
8.07218e-05
0.000749874
0.00602038
0.0407697
0.225204
0.966465
2.98724
5.85423
5.8595
3.02793
1.19166
3.91724e-14
7.24269e-13
1.31266e-11
2.21405e-10
3.45528e-09
4.95619e-08
6.48284e-07
7.66014e-06
8.08275e-05
0.000750743
0.00602622
0.0407997
0.225306
0.96661
2.987
5.85402
5.85929
3.02772
1.19191
3.92529e-14
7.25706e-13
1.31516e-11
2.21809e-10
3.46127e-09
4.96428e-08
6.49268e-07
7.6708e-06
8.0928e-05
0.000751548
0.00603146
0.0408253
0.225384
0.966671
2.9866
5.85358
5.85886
3.02735
1.19205
3.93192e-14
7.26875e-13
1.31718e-11
2.2213e-10
3.46597e-09
4.97054e-08
6.50019e-07
7.67875e-06
8.10011e-05
0.000752111
0.00603487
0.0408397
0.22541
0.966559
2.98586
5.85269
5.85797
3.02662
1.19196
3.93526e-14
7.27459e-13
1.31818e-11
2.22288e-10
3.46826e-09
4.97353e-08
6.50368e-07
7.68232e-06
8.10317e-05
0.000752315
0.00603575
0.0408394
0.225371
0.966243
2.98471
5.85126
5.85655
3.02547
1.19161
3.93637e-14
7.27652e-13
1.3185e-11
2.22339e-10
3.46896e-09
4.9744e-08
6.50459e-07
7.68305e-06
8.10348e-05
0.000752289
0.00603497
0.0408296
0.225289
0.965798
2.98333
5.84952
5.85481
3.02407
1.19108
3.9366e-14
7.27689e-13
1.31856e-11
2.22345e-10
3.46901e-09
4.97438e-08
6.50439e-07
7.68254e-06
8.10255e-05
0.000752154
0.00603339
0.0408149
0.225186
0.96529
2.98183
5.84761
5.85289
3.02256
1.19047
3.93635e-14
7.27636e-13
1.31844e-11
2.22323e-10
3.46861e-09
4.97369e-08
6.50329e-07
7.68094e-06
8.10044e-05
0.000751908
0.00603093
0.0407945
0.225054
0.964674
2.98005
5.84516
5.85043
3.02076
1.18972
3.9344e-14
7.27246e-13
1.31769e-11
2.22187e-10
3.46634e-09
4.9702e-08
6.4984e-07
7.67471e-06
8.0933e-05
0.000751185
0.00602459
0.0407478
0.224778
0.963454
2.97645
5.83912
5.84439
3.01711
1.18822
3.92286e-14
7.24958e-13
1.31329e-11
2.21405e-10
3.45355e-09
4.95106e-08
6.47235e-07
7.64277e-06
8.05842e-05
0.000747837
0.00599689
0.0405552
0.223693
0.958761
2.96211
5.81196
5.81719
3.00255
1.1824
3.86689e-14
7.13866e-13
1.29199e-11
2.17627e-10
3.3919e-09
4.85911e-08
6.3479e-07
7.49127e-06
7.89437e-05
0.000732259
0.0058695
0.0396799
0.218807
0.937678
2.89693
5.68473
5.68981
2.93635
1.15624
3.65777e-14
6.72388e-13
1.2123e-11
2.0348e-10
3.16104e-09
4.51481e-08
5.88202e-07
6.92444e-06
7.28117e-05
0.0006741
0.00539461
0.0364212
0.200632
0.859173
2.65335
5.20631
5.21079
2.68899
1.05885
3.10853e-14
5.63332e-13
1.00256e-11
1.66218e-10
2.55247e-09
3.60649e-08
4.65213e-07
5.42721e-06
5.66062e-05
0.000520332
0.00413852
0.027798
0.152507
0.651118
2.00689
3.93415
3.93705
2.03248
0.800761
2.25071e-14
3.92871e-13
6.74498e-12
1.07893e-10
1.59923e-09
2.18283e-08
2.72326e-07
3.07765e-06
3.1161e-05
0.000278758
0.0021641
0.0142363
0.0767785
0.323529
0.988312
1.92835
1.92877
0.998115
0.394435
1.70119e-14
2.83751e-13
4.64627e-12
7.06048e-11
9.90197e-10
1.27379e-08
1.49239e-07
1.57925e-06
1.49436e-05
0.000124888
0.000907314
0.00560964
0.0286422
0.115458
0.341863
0.656209
0.655044
0.341626
0.136321
1.49128e-14
2.42108e-13
3.84602e-12
5.63975e-11
7.58319e-10
9.27943e-09
1.02443e-07
1.00998e-06
8.78686e-06
6.6521e-05
0.00043103
0.00234398
0.0104441
0.0369226
0.0983206
0.177811
0.176049
0.0942883
0.0388721
1.43386e-14
2.30724e-13
3.62734e-12
5.25166e-11
6.94994e-10
8.33518e-09
8.96701e-08
8.54668e-07
7.10834e-06
5.06253e-05
0.000301528
0.00145816
0.00552469
0.0157918
0.0331817
0.050631
0.0487085
0.0281241
0.0126334
1.41993e-14
2.27971e-13
3.57458e-12
5.15813e-11
6.79747e-10
8.10802e-09
8.66011e-08
8.17423e-07
6.70707e-06
4.68441e-05
0.000270953
0.00125132
0.0043937
0.0110354
0.0189089
0.0235239
0.0215652
0.0136168
0.00670882
1.41368e-14
2.26787e-13
3.55267e-12
5.12047e-11
6.73776e-10
8.02132e-09
8.54585e-08
8.03903e-07
6.56535e-06
4.55496e-05
0.000260869
0.00118621
0.00405852
0.00973382
0.0153889
0.0175627
0.0155952
0.0100319
0.00507199
1.40262e-14
2.24879e-13
3.52032e-12
5.06947e-11
6.66344e-10
7.92198e-09
8.42513e-08
7.90712e-07
6.43754e-06
4.44708e-05
0.000253119
0.00114029
0.00384394
0.00899284
0.0136713
0.015158
0.0131932
0.00829627
0.00415361
1.36604e-14
2.1889e-13
3.42427e-12
4.92712e-11
6.46976e-10
7.6819e-09
8.15651e-08
7.63884e-07
6.20163e-06
4.26762e-05
0.000241575
0.00107941
0.00359183
0.00822321
0.0120888
0.0131419
0.0112145
0.00679432
0.00332022
1.24417e-14
1.99264e-13
3.11545e-12
4.47956e-11
5.87687e-10
6.97017e-09
7.39031e-08
6.90853e-07
5.595e-06
3.83724e-05
0.000216173
0.000958963
0.00315434
0.00708
0.0100797
0.0107495
0.00898029
0.00520223
0.0024558
9.34998e-15
1.49685e-13
2.33919e-12
3.36148e-11
4.40695e-10
5.22227e-09
5.53102e-08
5.16321e-07
4.1738e-06
2.85533e-05
0.00016028
0.000707182
0.00230585
0.00509663
0.00706957
0.00741618
0.00607872
0.00337266
0.0015328
4.57488e-15
7.31841e-14
1.1428e-12
1.64091e-11
2.14938e-10
2.54462e-09
2.69223e-08
2.5102e-07
2.02635e-06
1.38388e-05
7.75127e-05
0.000340966
0.00110668
0.00242735
0.00332367
0.00345711
0.00280515
0.00151974
0.000675258
1.53366e-15
2.45106e-14
3.8239e-13
5.48541e-12
7.17816e-11
8.48949e-10
8.97239e-09
8.35625e-08
6.73722e-07
4.59481e-06
2.56945e-05
0.000112799
0.000365111
0.000797439
0.00108455
0.00112302
0.000906294
0.000484688
0.000212641
3.81306e-16
6.08762e-15
9.48782e-14
1.35966e-12
1.7774e-11
2.0999e-10
2.21695e-09
2.0624e-08
1.66087e-07
1.1313e-06
6.31769e-06
2.76911e-05
8.94558e-05
0.00019485
0.000263951
0.00027258
0.00021926
0.000116363
5.06633e-05
7.46209e-17
1.19005e-15
1.85283e-14
2.65243e-13
3.46372e-12
4.08781e-11
4.31098e-10
4.00602e-09
3.2224e-08
2.19235e-07
1.22277e-06
5.35221e-06
1.7263e-05
3.75276e-05
5.07037e-05
5.22689e-05
4.19537e-05
2.21553e-05
9.59908e-06
1.19902e-17
1.91009e-16
2.97074e-15
4.24828e-14
5.54176e-13
6.53322e-12
6.88239e-11
6.38846e-10
5.13304e-09
3.48824e-08
1.94323e-07
8.49513e-07
2.7363e-06
5.93901e-06
8.00934e-06
8.24623e-06
6.60864e-06
3.47806e-06
1.50193e-06
1.63097e-18
2.5953e-17
4.03214e-16
5.75997e-15
7.50563e-14
8.83886e-13
9.30112e-12
8.62411e-11
6.92165e-10
4.69842e-09
2.6144e-08
1.14157e-07
3.67248e-07
7.96039e-07
1.07203e-06
1.10269e-06
8.82682e-07
4.63399e-07
1.99641e-07
1.92146e-19
3.05412e-18
4.73991e-17
6.76376e-16
8.80413e-15
1.03568e-13
1.08865e-12
1.00831e-11
8.08369e-11
5.48111e-10
3.0465e-09
1.32874e-08
4.26967e-08
9.24401e-08
1.24351e-07
1.27812e-07
1.02216e-07
5.35626e-08
2.30365e-08
1.99537e-20
3.16802e-19
4.91141e-18
7.00093e-17
9.10301e-16
1.06968e-14
1.12317e-13
1.03914e-12
8.32174e-12
5.63631e-11
3.12931e-10
1.36335e-09
4.37607e-09
9.46431e-09
1.27199e-08
1.30657e-08
1.04412e-08
5.46346e-09
2.34678e-09
1.85123e-21
2.93587e-20
4.54662e-19
6.47398e-18
8.40877e-17
9.87029e-16
1.03526e-14
9.5677e-14
7.65376e-13
5.17824e-12
2.87186e-11
1.24984e-10
4.00748e-10
8.6586e-10
1.1628e-09
1.1938e-09
9.53387e-10
4.98296e-10
2.13836e-10
1.43488e-22
2.27323e-21
3.51697e-20
5.00291e-19
6.49164e-18
7.61239e-17
7.97647e-16
7.36435e-15
5.88531e-14
3.97781e-13
2.20391e-12
9.58208e-12
3.0695e-11
6.6263e-11
8.89316e-11
9.12642e-11
7.28476e-11
3.80415e-11
1.6314e-11
)
;

boundaryField
{
    top
    {
        type            zeroGradient;
    }
    left
    {
        type            fixedValue;
        value           uniform 0;
    }
    bottom
    {
        type            zeroGradient;
    }
    right
    {
        type            zeroGradient;
    }
    frontAndBack
    {
        type            empty;
    }
}


// ************************************************************************* //
