/*--------------------------------*- C++ -*----------------------------------*\
| =========                 |                                                 |
| \\      /  F ield         | OpenFOAM: The Open Source CFD Toolbox           |
|  \\    /   O peration     | Version:  v1806                                 |
|   \\  /    A nd           | Web:      www.OpenFOAM.com                      |
|    \\/     M anipulation  |                                                 |
\*---------------------------------------------------------------------------*/
FoamFile
{
    version     2.0;
    format      ascii;
    class       volScalarField;
    location    "0.1";
    object      T;
}
// * * * * * * * * * * * * * * * * * * * * * * * * * * * * * * * * * * * * * //

dimensions      [0 0 0 1 0 0 0];


internalField   nonuniform List<scalar> 
1881
(
-1.24007e-18
-1.46738e-18
-1.71601e-18
-1.24083e-18
9.14345e-18
1.39113e-16
1.57588e-15
1.58382e-14
1.41732e-13
1.11526e-12
7.58211e-12
4.35145e-11
2.04286e-10
7.50299e-10
2.01682e-09
3.57357e-09
3.57972e-09
2.05966e-09
9.54254e-10
-9.65066e-18
-9.85867e-18
-1.01138e-17
-1.03715e-17
-1.02693e-17
3.39648e-18
2.72127e-16
4.09588e-15
4.80294e-14
4.66511e-13
3.77069e-12
2.50534e-11
1.33387e-10
5.45646e-10
1.60244e-09
3.01559e-09
3.02469e-09
1.63824e-09
6.87367e-10
4.75363e-18
7.0743e-18
9.95672e-18
1.07358e-17
-1.93503e-17
-4.09179e-16
-4.56375e-15
-4.40205e-14
-3.76419e-13
-2.82413e-12
-1.82686e-11
-9.95516e-11
-4.42962e-10
-1.54084e-09
-3.93267e-09
-6.69713e-09
-6.70265e-09
-4.01355e-09
-1.96991e-09
1.20959e-16
1.27922e-16
1.36265e-16
1.38363e-16
5.47063e-17
-1.06445e-15
-1.35401e-14
-1.37929e-13
-1.24057e-12
-9.8046e-12
-6.69512e-11
-3.85974e-10
-1.82031e-09
-6.71581e-09
-1.81279e-08
-3.22211e-08
-3.22783e-08
-1.85133e-08
-8.53719e-09
1.78838e-16
1.64923e-16
1.4575e-16
1.1705e-16
2.09894e-18
-1.18726e-15
-1.49655e-14
-1.6104e-13
-1.53537e-12
-1.28245e-11
-9.2237e-11
-5.58234e-10
-2.75463e-09
-1.05922e-08
-2.96326e-08
-5.40167e-08
-5.41409e-08
-3.0273e-08
-1.3412e-08
-1.06194e-15
-1.17182e-15
-1.3103e-15
-1.44386e-15
-1.40684e-15
5.64296e-16
2.15735e-14
2.08432e-13
1.65597e-12
1.12833e-11
6.48201e-11
3.04325e-10
1.11642e-09
2.99779e-09
5.37632e-09
6.04762e-09
5.98557e-09
5.4647e-09
3.94986e-09
-4.14028e-15
-4.19118e-15
-4.2382e-15
-4.19396e-15
-3.26587e-15
7.7528e-15
1.26877e-13
1.28996e-12
1.13977e-11
8.83684e-11
5.91913e-10
3.34757e-09
1.5492e-08
5.61236e-08
1.49011e-07
2.61667e-07
2.62064e-07
1.52152e-07
7.14697e-08
4.34143e-15
5.54258e-15
7.08195e-15
8.89257e-15
1.23301e-14
3.41029e-14
2.59383e-13
2.52762e-12
2.29936e-11
1.8488e-10
1.2849e-09
7.53692e-09
3.61481e-08
1.35509e-07
3.71033e-07
6.66338e-07
6.67648e-07
3.78944e-07
1.71971e-07
5.66359e-14
5.95975e-14
6.31828e-14
6.67783e-14
7.04889e-14
7.86563e-14
1.56924e-13
1.11831e-12
1.14543e-11
1.05877e-10
8.29968e-10
5.39508e-09
2.82581e-08
1.14178e-07
3.32302e-07
6.2185e-07
6.23555e-07
3.39511e-07
1.43846e-07
5.92838e-14
5.08826e-14
3.9926e-14
2.66565e-14
5.70854e-15
-8.26738e-14
-8.544e-13
-8.00172e-12
-6.7945e-11
-5.0854e-10
-3.28499e-09
-1.78829e-08
-7.9514e-08
-2.76471e-07
-7.05536e-07
-1.2016e-06
-1.2027e-06
-7.20246e-07
-3.5361e-07
-5.44534e-13
-5.96081e-13
-6.59304e-13
-7.27267e-13
-8.13791e-13
-1.09541e-12
-3.48233e-12
-2.64817e-11
-2.28692e-10
-1.79106e-09
-1.21696e-08
-6.98718e-08
-3.28349e-07
-1.20767e-06
-3.25167e-06
-5.77005e-06
-5.77996e-06
-3.32049e-06
-1.53543e-06
-1.74663e-12
-1.74839e-12
-1.74365e-12
-1.72534e-12
-1.708e-12
-1.91563e-12
-4.90131e-12
-3.64883e-11
-3.27246e-10
-2.66398e-09
-1.87788e-08
-1.11673e-07
-5.42591e-07
-2.05858e-06
-5.69591e-06
-1.03059e-05
-1.03272e-05
-5.81705e-06
-2.60878e-06
2.95209e-12
3.5589e-12
4.30585e-12
5.12253e-12
6.01633e-12
7.09337e-12
9.20708e-12
1.78422e-11
5.60117e-11
1.14224e-10
-1.03212e-09
-1.59188e-08
-1.20726e-07
-6.06029e-07
-2.02548e-06
-4.10409e-06
-4.12036e-06
-2.06957e-06
-7.4843e-07
2.60628e-11
2.72752e-11
2.86712e-11
3.00302e-11
3.14063e-11
3.39355e-11
4.98144e-11
1.94227e-10
1.42706e-09
1.06908e-08
7.05045e-08
3.93504e-07
1.79782e-06
6.43224e-06
1.68833e-05
2.93975e-05
2.94378e-05
1.72392e-05
8.20228e-06
1.61884e-11
1.13833e-11
5.37455e-12
-1.49603e-12
-9.05924e-12
-1.46989e-11
1.06025e-11
3.5029e-10
3.45047e-09
2.76564e-08
1.89663e-07
1.09696e-06
5.19124e-06
1.9224e-05
5.20857e-05
9.28547e-05
9.30205e-05
5.31866e-05
2.44212e-05
-2.72026e-10
-2.95825e-10
-3.23799e-10
-3.52873e-10
-3.82452e-10
-4.09593e-10
-4.02712e-10
-4.14605e-11
3.55782e-09
3.29296e-08
2.37241e-07
1.42391e-06
6.96778e-06
2.66028e-05
7.40097e-05
0.000134426
0.000134708
7.55738e-05
3.36822e-05
-7.16133e-10
-7.05972e-10
-6.90166e-10
-6.66265e-10
-6.33152e-10
-5.92208e-10
-5.64914e-10
-7.33299e-10
-2.36321e-09
-1.26125e-08
-6.20446e-08
-2.30542e-07
-5.07426e-07
1.65245e-07
5.38177e-06
1.59409e-05
1.60744e-05
5.49389e-06
-7.89916e-08
1.77761e-09
2.07953e-09
2.43686e-09
2.8223e-09
3.23319e-09
3.65328e-09
3.9121e-09
2.39742e-09
-1.43984e-08
-1.44805e-07
-9.95446e-07
-5.6251e-06
-2.59152e-05
-9.34466e-05
-0.000247097
-0.0004327
-0.000433339
-0.000252315
-0.000119063
1.17848e-08
1.22581e-08
1.27681e-08
1.32366e-08
1.36436e-08
1.39429e-08
1.37512e-08
9.4478e-09
-3.01025e-08
-3.38335e-07
-2.40062e-06
-1.39543e-05
-6.61275e-05
-0.000245106
-0.000664683
-0.0011858
-0.00118791
-0.000678694
-0.000311317
2.1691e-09
-4.80239e-10
-3.66355e-09
-7.25344e-09
-1.12738e-08
-1.57818e-08
-2.12007e-08
-3.16307e-08
-8.35629e-08
-4.60011e-07
-3.02214e-06
-1.77845e-05
-8.6377e-05
-0.000328222
-0.000909902
-0.00164889
-0.00165222
-0.000929025
-0.000415676
-1.33013e-07
-1.4385e-07
-1.55999e-07
-1.68426e-07
-1.80985e-07
-1.93558e-07
-2.05889e-07
-2.16837e-07
-2.20673e-07
-1.99291e-07
-1.91678e-07
-1.21339e-06
-1.07485e-05
-6.00446e-05
-0.000212857
-0.000444413
-0.000446172
-0.000217128
-7.30825e-05
-2.83237e-07
-2.7304e-07
-2.59378e-07
-2.41541e-07
-2.19022e-07
-1.91252e-07
-1.56157e-07
-9.77186e-08
1.14351e-07
1.42109e-06
9.59736e-06
5.3614e-05
0.000245405
0.000880664
0.00231953
0.00405052
0.00405649
0.00236897
0.00112317
1.00255e-06
1.15089e-06
1.31831e-06
1.49594e-06
1.68344e-06
1.88127e-06
2.0935e-06
2.35795e-06
2.99649e-06
6.40908e-06
2.77777e-05
0.000145717
0.000674608
0.00247927
0.00669002
0.0118987
0.0119193
0.00683134
0.0031504
5.24223e-06
5.40856e-06
5.57041e-06
5.70325e-06
5.80477e-06
5.87171e-06
5.90335e-06
5.9457e-06
6.44154e-06
1.08456e-05
4.15489e-05
0.000217101
0.00102245
0.00382551
0.0104872
0.0188636
0.0188979
0.0107038
0.00484488
-1.49822e-06
-2.83509e-06
-4.33805e-06
-6.01882e-06
-7.92944e-06
-1.01145e-05
-1.26125e-05
-1.53756e-05
-1.81173e-05
-1.8694e-05
-2.49049e-06
0.000112458
0.000680836
0.00276252
0.00792415
0.0146468
0.0146746
0.00807544
0.00347291
-6.27467e-05
-6.68231e-05
-7.0971e-05
-7.59748e-05
-8.16434e-05
-8.77994e-05
-9.43992e-05
-0.000100316
-0.000106146
-0.000116039
-0.000154488
-0.000339003
-0.00110047
-0.00350293
-0.00867683
-0.0145936
-0.0146075
-0.0088587
-0.00445141
-0.000111766
-0.000107779
-9.83262e-05
-8.32924e-05
-6.27331e-05
-3.67354e-05
-1.03211e-05
1.61918e-05
4.05469e-05
4.62464e-05
-6.96192e-05
-0.000832673
-0.00431513
-0.0161266
-0.0434073
-0.0768069
-0.0769006
-0.0442366
-0.0204194
0.000366426
0.000396481
0.00062425
0.000853046
0.00108281
0.00131331
0.00134826
0.00138269
0.00141231
0.00140509
0.00115773
-0.000386642
-0.00747364
-0.0318469
-0.0890027
-0.159992
-0.160235
-0.090793
-0.0406988
0.00180854
0.00184046
0.00206212
0.00228361
0.00250483
0.0027256
0.00275956
0.00279279
0.00281977
0.00279877
0.00246096
0.000387798
-0.00920706
-0.0426027
-0.121868
-0.221404
-0.221776
-0.124362
-0.0546558
0.00320409
0.00323219
0.00344187
0.00365147
0.00386079
0.00406965
0.0041018
0.00413344
0.00416063
0.0041526
0.00390441
0.00229993
-0.00535804
-0.0327257
-0.0992447
-0.184499
-0.184838
-0.101274
-0.0423545
0.00452416
0.00454852
0.00474602
0.00494364
0.00514097
0.00533787
0.00536824
0.00539896
0.00543266
0.00548676
0.00565653
0.00635686
0.0089173
0.015972
0.0287689
0.0405239
0.0405414
0.0294074
0.0192585
0.00576781
0.00578865
0.00597391
0.0061595
0.00634484
0.00652975
0.0065584
0.00658909
0.00663747
0.0068177
0.00783611
0.0132684
0.037079
0.116667
0.298786
0.520145
0.520962
0.305038
0.146847
0.0069343
0.00695179
0.00712472
0.00729822
0.00747148
0.00764436
0.00767132
0.00770282
0.00777383
0.00814325
0.0104378
0.0230291
0.0791997
0.269969
0.713287
1.25987
1.26194
0.728126
0.34112
0.00802295
0.00803735
0.008198
0.00835951
0.00852083
0.00868183
0.00870733
0.00874044
0.00883974
0.00944179
0.0133084
0.034755
0.131131
0.460649
1.23133
2.18709
2.19076
1.25686
0.58271
0.00904061
0.00905286
0.00920202
0.00935239
0.00950271
0.00965285
0.00967805
0.00971411
0.00984407
0.0106893
0.0161974
0.0469164
0.185537
0.661347
1.77834
3.16829
3.17366
1.81512
0.836901
0.0100082
0.010019
0.0101571
0.0102971
0.0104372
0.0105772
0.0106028
0.0106414
0.010798
0.0118586
0.0188306
0.0578529
0.234425
0.842063
2.27204
4.05539
4.06229
2.31891
1.06565
0.0108918
0.010896
0.0110151
0.0111331
0.0112483
0.0113605
0.0113682
0.0113912
0.0115509
0.0127585
0.0208293
0.066176
0.271792
0.980637
2.65154
4.73848
4.74653
2.7061
1.24092
0.0114408
0.01143
0.0114307
0.0114328
0.0114346
0.011436
0.0114384
0.0114577
0.0116256
0.012933
0.0217102
0.0711042
0.295338
1.06922
2.89536
5.17835
5.18716
2.95485
1.35305
0.0114563
0.0114432
0.0114405
0.0114402
0.0114402
0.0114405
0.0114424
0.0114621
0.0116363
0.0129963
0.0221353
0.0735994
0.307379
1.11471
3.02094
5.40536
5.41455
3.08296
1.41061
0.0114567
0.0114443
0.0114413
0.0114408
0.0114408
0.011441
0.011443
0.0114629
0.0116394
0.0130183
0.0222865
0.0744934
0.311718
1.13118
3.0666
5.48816
5.49749
3.12953
1.43143
0.0114568
0.011445
0.0114418
0.0114413
0.0114413
0.0114415
0.0114435
0.0114634
0.0116401
0.0130207
0.022301
0.0745811
0.312159
1.13292
3.07158
5.49737
5.50672
3.13459
1.43361
0.0114566
0.0114454
0.011442
0.0114414
0.0114414
0.0114415
0.0114435
0.0114633
0.0116395
0.0130162
0.02227
0.0744008
0.311299
1.12971
3.06281
5.48167
5.49098
3.12564
1.42953
0.0114551
0.0114445
0.0114409
0.0114402
0.0114401
0.0114402
0.0114421
0.0114618
0.0116374
0.0130099
0.0222359
0.0742074
0.310371
1.12621
3.05318
5.46429
5.47357
3.1158
1.42509
0.0114514
0.0114413
0.0114375
0.0114367
0.0114365
0.0114365
0.0114383
0.0114579
0.0116333
0.0130037
0.022215
0.0741003
0.309855
1.12422
3.04759
5.45406
5.46332
3.11009
1.42257
0.0114457
0.0114361
0.0114323
0.0114313
0.0114311
0.0114311
0.0114329
0.0114525
0.0116281
0.0130003
0.0222231
0.0741671
0.310163
1.12528
3.05022
5.45843
5.46769
3.11278
1.42394
0.0114413
0.0114322
0.0114284
0.0114275
0.0114273
0.0114275
0.0114294
0.0114493
0.0116261
0.0130067
0.0222841
0.0745311
0.31188
1.13158
3.06712
5.48833
5.49765
3.13007
1.432
0.011445
0.0114366
0.011433
0.0114323
0.0114325
0.011433
0.0114354
0.0114559
0.0116351
0.0130318
0.0224163
0.0752663
0.315356
1.14451
3.10227
5.55113
5.56058
3.16602
1.44849
0.011466
0.0114583
0.0114551
0.011455
0.0114557
0.0114568
0.0114598
0.0114812
0.0116634
0.0130804
0.0226005
0.0762261
0.319895
1.16156
3.14917
5.63562
5.64526
3.21399
1.47022
0.01151
0.0115029
0.0115002
0.0115005
0.0115019
0.0115035
0.0115071
0.0115292
0.0117134
0.013143
0.0227503
0.0768942
0.323044
1.17369
3.18336
5.69832
5.70811
3.24893
1.4856
0.0115702
0.0115636
0.0115609
0.0115613
0.0115627
0.0115645
0.0115681
0.01159
0.0117723
0.0131875
0.0227053
0.076385
0.320609
1.16524
3.16217
5.66284
5.67258
3.22724
1.47467
0.0116194
0.0116126
0.0116092
0.0116086
0.011609
0.0116097
0.0116122
0.0116321
0.0118053
0.0131577
0.0222648
0.0736722
0.307762
1.1181
3.03579
5.43944
5.44873
3.09795
1.41436
0.011607
0.0115993
0.0115937
0.0115907
0.0115885
0.0115866
0.0115863
0.0116017
0.0117564
0.0129827
0.0212577
0.0680029
0.281021
1.01909
2.7676
4.96164
4.96995
2.82366
1.28794
0.0114669
0.0114573
0.0114483
0.0114411
0.0114346
0.0114284
0.0114234
0.0114319
0.0115588
0.0125965
0.0196213
0.0593147
0.240247
0.867538
2.35508
4.22386
4.23064
2.40181
1.09464
0.0111347
0.0111226
0.0111089
0.0110964
0.0110844
0.0110725
0.0110616
0.0110612
0.011154
0.0119604
0.0174462
0.0484194
0.189492
0.678543
1.83901
3.29855
3.30338
1.8741
0.853758
0.0105686
0.0105538
0.0105352
0.0105169
0.0104988
0.0104809
0.0104636
0.0104539
0.0105112
0.0110774
0.0149584
0.0368046
0.136003
0.479308
1.29375
2.31905
2.32181
1.3166
0.599997
0.00976452
0.00974722
0.00972422
0.00970065
0.00967717
0.00965372
0.00963072
0.00961279
0.00963862
0.00999133
0.0124409
0.0261176
0.0877079
0.299695
0.801435
1.43328
1.43416
0.813265
0.371382
0.00875741
0.00873846
0.00871228
0.00868484
0.00865731
0.0086298
0.00860258
0.00857853
0.00858077
0.00877207
0.0101345
0.0175826
0.0504022
0.161612
0.422686
0.750966
0.750397
0.426049
0.195766
0.00761036
0.00759075
0.00756295
0.00753337
0.00750359
0.00747381
0.00744425
0.00741669
0.00740446
0.00749414
0.00816707
0.0116472
0.0260675
0.0726077
0.17878
0.311184
0.309671
0.176694
0.0827127
0.0063965
0.00637718
0.00634928
0.0063193
0.00628901
0.00625874
0.00622865
0.0062
0.00618117
0.00622029
0.00654449
0.00800587
0.0130251
0.0263966
0.0528495
0.084165
0.0821675
0.0479775
0.024207
0.00518405
0.00516581
0.0051391
0.00511016
0.00508087
0.0050516
0.00502252
0.00499468
0.00497464
0.00499645
0.00519487
0.00592497
0.00753789
0.00887417
0.00632029
0.00072629
-0.00141666
0.000522908
0.00234377
0.00402974
0.0040132
0.0039887
0.00396199
0.00393492
0.00390787
0.00388103
0.00385537
0.00383699
0.00385686
0.00403318
0.00464548
0.00576766
0.00550211
-0.000775143
-0.0111045
-0.0131748
-0.00644356
-0.00129404
0.00297957
0.00296522
0.00294376
0.00292025
0.0028964
0.00287258
0.00284898
0.00282652
0.00281092
0.00283201
0.00300823
0.00365225
0.00506964
0.00620014
0.00373115
-0.00159839
-0.00345983
-0.00130622
0.000538124
0.00207108
0.00205929
0.00204152
0.00202199
0.00200215
0.00198237
0.0019628
0.00194424
0.00193171
0.00195183
0.00211402
0.00273189
0.00426445
0.00637711
0.00703347
0.00599469
0.00443153
0.00285278
0.00199906
0.00133226
0.00132321
0.00130951
0.0012944
0.00127907
0.0012638
0.00124872
0.00123446
0.00122498
0.00124142
0.00137206
0.00187847
0.00319041
0.00525202
0.006758
0.00721503
0.00600381
0.00353572
0.00199617
0.000776398
0.000770044
0.000760385
0.00074972
0.000738903
0.000728152
0.000717565
0.000707571
0.000700933
0.000712446
0.000804056
0.00116006
0.00208623
0.00355467
0.00466274
0.00505179
0.00420342
0.00240574
0.00128151
0.000397176
0.000393187
0.00038711
0.000380396
0.000373596
0.000366856
0.000360237
0.000354001
0.000349827
0.000356714
0.000412264
0.00062755
0.00118139
0.00202851
0.00257128
0.002634
0.00211149
0.00117796
0.000609629
0.000168633
0.000166469
0.000163168
0.000159523
0.000155842
0.000152205
0.000148647
0.0001453
0.000143026
0.000146439
0.000174784
0.000284525
0.00056372
0.000974275
0.00118345
0.00112312
0.000851656
0.000457824
0.000227359
5.17256e-05
5.077e-05
4.93129e-05
4.7707e-05
4.60915e-05
4.45044e-05
4.29596e-05
4.15101e-05
4.04988e-05
4.17681e-05
5.30239e-05
9.68778e-05
0.00020828
0.000369713
0.00044271
0.000403474
0.000293977
0.000149583
6.69334e-05
4.85519e-06
4.56066e-06
4.11286e-06
3.62199e-06
3.1328e-06
2.65762e-06
2.20029e-06
1.77296e-06
1.45513e-06
1.67978e-06
4.28035e-06
1.47252e-05
4.17777e-05
8.23045e-05
0.000104169
0.000100403
7.44149e-05
3.45458e-05
1.10415e-05
-6.53458e-06
-6.55394e-06
-6.58214e-06
-6.61083e-06
-6.63594e-06
-6.65629e-06
-6.67204e-06
-6.68568e-06
-6.71239e-06
-6.82993e-06
-7.34822e-06
-9.11678e-06
-1.32336e-05
-1.82626e-05
-1.80095e-05
-1.24256e-05
-7.97965e-06
-6.14105e-06
-5.56269e-06
-5.0429e-06
-4.99718e-06
-4.92678e-06
-4.84805e-06
-4.76721e-06
-4.68597e-06
-4.60521e-06
-4.52912e-06
-4.48436e-06
-4.61326e-06
-5.50842e-06
-8.9037e-06
-1.74867e-05
-3.00258e-05
-3.62135e-05
-3.40095e-05
-2.56583e-05
-1.38956e-05
-7.03421e-06
-1.76291e-06
-1.73047e-06
-1.68086e-06
-1.62599e-06
-1.57056e-06
-1.51587e-06
-1.46244e-06
-1.41237e-06
-1.37905e-06
-1.43492e-06
-1.88507e-06
-3.63817e-06
-8.16848e-06
-1.50966e-05
-1.94179e-05
-1.97492e-05
-1.54819e-05
-8.01668e-06
-3.49859e-06
-4.22156e-08
-3.22131e-08
-1.70482e-08
-4.69453e-10
1.59894e-08
3.19034e-08
4.71487e-08
6.13722e-08
7.2242e-08
6.68816e-08
-1.01468e-08
-3.28538e-07
-1.17956e-06
-2.54906e-06
-3.57349e-06
-3.93611e-06
-3.16197e-06
-1.50208e-06
-4.73899e-07
2.97916e-07
2.97117e-07
2.95819e-07
2.94267e-07
2.92534e-07
2.90643e-07
2.88629e-07
2.86715e-07
2.8631e-07
2.94892e-07
3.43513e-07
5.2322e-07
9.78368e-07
1.66438e-06
2.08274e-06
2.09559e-06
1.66537e-06
9.3649e-07
4.94631e-07
1.46893e-07
1.44638e-07
1.41176e-07
1.37327e-07
1.33413e-07
1.29524e-07
1.25701e-07
1.2212e-07
1.19908e-07
1.25146e-07
1.63472e-07
3.11372e-07
6.9374e-07
1.2826e-06
1.66404e-06
1.71657e-06
1.35885e-06
7.08686e-07
3.13044e-07
1.02991e-08
9.43355e-09
8.12047e-09
6.6822e-09
5.24998e-09
3.86026e-09
2.52437e-09
1.27709e-09
3.46019e-10
9.80179e-10
8.51472e-09
3.90289e-08
1.18775e-07
2.39923e-07
3.09077e-07
3.04893e-07
2.28874e-07
1.05154e-07
3.19193e-08
-2.16312e-08
-2.1577e-08
-2.14873e-08
-2.13778e-08
-2.12535e-08
-2.11159e-08
-2.09679e-08
-2.08285e-08
-2.0817e-08
-2.15697e-08
-2.57439e-08
-4.1203e-08
-8.0749e-08
-1.41995e-07
-1.8429e-07
-1.93959e-07
-1.57386e-07
-8.6914e-08
-4.34487e-08
-9.41411e-09
-9.2405e-09
-8.97443e-09
-8.67895e-09
-8.37917e-09
-8.08212e-09
-7.79094e-09
-7.51879e-09
-7.35018e-09
-7.74219e-09
-1.06237e-08
-2.17387e-08
-5.03294e-08
-9.34654e-08
-1.18331e-07
-1.17045e-07
-8.98444e-08
-4.55575e-08
-1.91671e-08
7.06756e-10
7.54417e-10
8.26155e-10
9.04001e-10
9.80547e-10
1.05375e-09
1.12312e-09
1.18788e-09
1.24248e-09
1.25542e-09
1.08845e-09
3.19927e-10
-1.70912e-09
-4.5273e-09
-5.01904e-09
-3.07093e-09
-9.69746e-10
6.85104e-10
1.43434e-09
1.78379e-09
1.76777e-09
1.74283e-09
1.71457e-09
1.68517e-09
1.65525e-09
1.62521e-09
1.59719e-09
1.58465e-09
1.66007e-09
2.12764e-09
3.88782e-09
8.37659e-09
1.51077e-08
1.89425e-08
1.86526e-08
1.43786e-08
7.51954e-09
3.43247e-09
3.209e-10
3.08724e-10
2.90199e-10
2.69804e-10
2.49348e-10
2.29336e-10
2.09954e-10
1.91866e-10
1.79374e-10
1.95947e-10
3.41264e-10
9.13228e-10
2.38719e-09
4.57028e-09
5.6537e-09
5.29855e-09
3.87147e-09
1.82426e-09
6.39331e-10
-2.25644e-10
-2.25634e-10
-2.2552e-10
-2.25255e-10
-2.24806e-10
-2.24167e-10
-2.2337e-10
-2.2264e-10
-2.23408e-10
-2.33285e-10
-2.83942e-10
-4.68152e-10
-9.31076e-10
-1.61494e-09
-1.9855e-09
-1.92173e-09
-1.47854e-09
-8.02684e-10
-4.02144e-10
-9.26299e-11
-9.06183e-11
-8.75409e-11
-8.41274e-11
-8.06701e-11
-7.72513e-11
-7.3908e-11
-7.07942e-11
-6.89046e-11
-7.36367e-11
-1.07833e-10
-2.39603e-10
-5.77879e-10
-1.08222e-09
-1.34932e-09
-1.29488e-09
-9.70151e-10
-4.79187e-10
-1.91128e-10
2.26025e-11
2.29051e-11
2.33512e-11
2.38229e-11
2.42705e-11
2.46807e-11
2.50533e-11
2.5404e-11
2.58284e-11
2.6821e-11
3.03778e-11
4.21222e-11
7.01621e-11
1.08902e-10
1.24122e-10
1.10266e-10
8.26105e-11
5.06312e-11
3.24534e-11
1.71626e-11
1.68761e-11
1.64358e-11
1.59447e-11
1.54438e-11
1.49445e-11
1.4453e-11
1.39962e-11
1.37488e-11
1.46568e-11
2.07208e-11
4.38729e-11
1.03274e-10
1.92339e-10
2.41498e-10
2.35213e-10
1.78524e-10
8.96885e-11
3.71575e-11
-2.2172e-12
-2.28893e-12
-2.39602e-12
-2.5113e-12
-2.62351e-12
-2.72959e-12
-2.82907e-12
-2.92259e-12
-3.01353e-12
-3.11624e-12
-3.27541e-12
-3.56633e-12
-3.9331e-12
-3.79506e-12
-2.23065e-12
3.98983e-13
9.55753e-13
-8.21552e-13
-2.07503e-12
-2.80923e-12
-2.76773e-12
-2.70382e-12
-2.63231e-12
-2.55905e-12
-2.48573e-12
-2.4133e-12
-2.34625e-12
-2.31366e-12
-2.47305e-12
-3.49146e-12
-7.36256e-12
-1.73118e-11
-3.23533e-11
-4.10672e-11
-4.07064e-11
-3.12804e-11
-1.58343e-11
-6.62571e-12
2.86004e-13
2.98288e-13
3.16668e-13
3.36516e-13
3.55927e-13
3.74378e-13
3.91781e-13
4.08177e-13
4.23725e-13
4.38661e-13
4.51406e-13
4.4812e-13
3.79818e-13
1.76855e-13
-1.38952e-13
-4.90322e-13
-4.51778e-13
-2.11145e-14
2.58441e-13
4.40188e-13
4.33778e-13
4.23914e-13
4.12876e-13
4.01569e-13
3.90254e-13
3.79083e-13
3.68808e-13
3.64288e-13
3.9191e-13
5.63552e-13
1.21447e-12
2.89096e-12
5.44429e-12
6.98198e-12
7.02137e-12
5.44333e-12
2.75844e-12
1.14816e-12
-4.71317e-14
-4.88349e-14
-5.13762e-14
-5.41114e-14
-5.67753e-14
-5.92954e-14
-6.16604e-14
-6.38791e-14
-6.59936e-14
-6.81431e-14
-7.05759e-14
-7.29329e-14
-7.20398e-14
-6.31898e-14
-5.13956e-14
-3.72495e-14
-3.7291e-14
-5.41212e-14
-6.34326e-14
-5.6331e-14
-5.53482e-14
-5.38412e-14
-5.21612e-14
-5.04482e-14
-4.87422e-14
-4.70646e-14
-4.55159e-14
-4.47468e-14
-4.82999e-14
-7.12391e-14
-1.58856e-13
-3.8538e-13
-7.3191e-13
-9.43573e-13
-9.54351e-13
-7.41475e-13
-3.73559e-13
-1.52627e-13
1.3582e-14
1.36971e-14
1.38635e-14
1.40355e-14
1.41937e-14
1.43329e-14
1.44545e-14
1.45737e-14
1.47885e-14
1.56201e-14
1.92438e-14
3.20796e-14
6.44556e-14
1.13784e-13
1.45682e-13
1.49827e-13
1.19741e-13
6.55361e-14
3.24346e-14
5.83105e-15
5.66618e-15
5.41511e-15
5.13745e-15
4.85717e-15
4.58101e-15
4.31189e-15
4.06166e-15
3.90749e-15
4.27208e-15
6.96269e-15
1.74376e-14
4.46528e-14
8.61036e-14
1.10243e-13
1.09636e-13
8.38623e-14
4.11028e-14
1.56938e-14
-3.65231e-15
-3.63754e-15
-3.61363e-15
-3.58525e-15
-3.5541e-15
-3.52073e-15
-3.48608e-15
-3.45613e-15
-3.46965e-15
-3.73642e-15
-5.14328e-15
-1.03401e-14
-2.3632e-14
-4.38484e-14
-5.61436e-14
-5.6644e-14
-4.41784e-14
-2.28096e-14
-9.96111e-15
-4.78716e-16
-4.51788e-16
-4.11032e-16
-3.66296e-16
-3.21562e-16
-2.7794e-16
-2.35822e-16
-1.96576e-16
-1.69194e-16
-2.0338e-16
-5.13127e-16
-1.74805e-15
-4.97161e-15
-9.82853e-15
-1.23911e-14
-1.18848e-14
-8.79386e-15
-4.07744e-15
-1.33208e-15
6.60168e-16
6.54303e-16
6.45191e-16
6.34857e-16
6.2409e-16
6.13122e-16
6.02164e-16
5.92427e-16
5.91793e-16
6.43065e-16
9.27685e-16
1.98855e-15
4.70386e-15
8.79773e-15
1.11365e-14
1.09876e-14
8.41854e-15
4.25696e-15
1.78427e-15
3.47786e-18
4.38104e-19
-4.13625e-18
-9.12113e-18
-1.406e-17
-1.8827e-17
-2.33873e-17
-2.76521e-17
-3.1025e-17
-3.01414e-17
-1.02588e-17
7.41484e-17
2.99088e-16
6.40766e-16
8.16456e-16
7.75175e-16
5.58914e-16
2.32504e-16
4.46411e-17
-6.55046e-17
-6.46086e-17
-6.3234e-17
-6.16969e-17
-6.01228e-17
-5.85478e-17
-5.69963e-17
-5.55992e-17
-5.52112e-17
-6.04867e-17
-9.1206e-17
-2.06633e-16
-5.02299e-16
-9.44736e-16
-1.18314e-15
-1.14322e-15
-8.61353e-16
-4.27398e-16
-1.72428e-16
8.16792e-18
8.20197e-18
8.24984e-18
8.29694e-18
8.33696e-18
8.36838e-18
8.39259e-18
8.42161e-18
8.5331e-18
9.14422e-18
1.2005e-17
2.22812e-17
4.80968e-17
8.60464e-17
1.05444e-16
1.00054e-16
7.53029e-17
3.9241e-17
1.81365e-17
)
;

boundaryField
{
    top
    {
        type            zeroGradient;
    }
    left
    {
        type            fixedValue;
        value           uniform 0;
    }
    bottom
    {
        type            zeroGradient;
    }
    right
    {
        type            zeroGradient;
    }
    frontAndBack
    {
        type            empty;
    }
}


// ************************************************************************* //
