/*--------------------------------*- C++ -*----------------------------------*\
| =========                 |                                                 |
| \\      /  F ield         | OpenFOAM: The Open Source CFD Toolbox           |
|  \\    /   O peration     | Version:  v1806                                 |
|   \\  /    A nd           | Web:      www.OpenFOAM.com                      |
|    \\/     M anipulation  |                                                 |
\*---------------------------------------------------------------------------*/
FoamFile
{
    version     2.0;
    format      ascii;
    class       volScalarField;
    location    "0.1";
    object      T;
}
// * * * * * * * * * * * * * * * * * * * * * * * * * * * * * * * * * * * * * //

dimensions      [0 0 0 1 0 0 0];


internalField   nonuniform List<scalar> 
1881
(
1.15434e-74
9.80188e-73
8.09263e-71
6.39094e-69
4.79859e-67
3.40131e-65
2.25653e-63
1.38643e-61
7.78271e-60
3.92017e-58
1.72775e-56
6.41862e-55
1.89275e-53
3.96785e-52
4.5495e-51
4.90612e-51
4.9043e-51
4.52757e-51
3.92197e-52
1.71625e-72
1.49546e-70
1.26768e-68
1.02884e-66
7.94801e-65
5.80422e-63
3.97372e-61
2.52427e-59
1.46822e-57
7.68117e-56
3.52513e-54
1.36727e-52
4.22043e-51
9.28314e-50
1.1181e-48
1.20174e-48
1.20133e-48
1.11296e-48
9.15695e-50
2.51863e-70
2.25263e-68
1.96127e-66
1.6367e-64
1.30179e-62
9.80324e-61
6.93378e-59
4.56014e-57
2.75252e-55
1.49823e-53
7.17312e-52
2.91041e-50
9.42291e-49
2.17932e-47
2.7637e-46
2.96054e-46
2.95964e-46
2.75164e-46
2.14538e-47
3.61863e-68
3.32355e-66
2.97391e-64
2.55381e-62
2.09338e-60
1.62759e-58
1.19101e-56
8.12283e-55
5.09752e-53
2.89258e-51
1.4478e-49
6.15849e-48
2.09618e-46
5.11012e-45
6.84194e-44
7.30466e-44
7.30265e-44
6.81369e-44
5.02066e-45
5.08104e-66
4.79483e-64
4.41243e-62
3.90258e-60
3.30049e-58
2.65289e-56
2.01156e-54
1.42519e-52
9.31664e-51
5.52277e-49
2.89608e-47
1.29441e-45
4.64296e-44
1.19626e-42
1.69625e-41
1.80484e-41
1.8044e-41
1.68964e-41
1.17306e-42
6.95893e-64
6.75126e-62
6.39451e-60
5.83076e-58
5.09385e-56
4.23895e-54
3.33606e-52
2.45994e-50
1.67844e-48
1.04156e-46
5.73487e-45
2.69961e-43
1.02312e-41
2.79433e-40
4.21075e-39
4.46506e-39
4.46408e-39
4.19536e-39
2.73504e-40
9.27628e-62
9.25824e-60
9.03329e-58
8.5012e-56
7.68189e-54
6.62859e-52
5.42392e-50
4.17035e-48
2.97597e-46
1.93739e-44
1.12262e-42
5.57987e-41
2.24077e-39
6.50911e-38
1.04637e-36
1.10576e-36
1.10555e-36
1.0428e-36
6.35967e-38
1.20059e-59
1.23362e-57
1.2411e-55
1.20689e-53
1.12961e-51
1.01232e-49
8.62782e-48
6.93054e-46
5.18308e-44
3.54764e-42
2.16864e-40
1.14127e-38
4.87197e-37
1.51082e-35
2.60162e-34
2.73985e-34
2.73939e-34
2.59339e-34
1.47369e-35
1.50457e-57
1.59284e-55
1.65404e-53
1.66407e-51
1.61562e-49
1.50618e-47
1.33946e-45
1.12628e-43
8.84584e-42
6.38048e-40
4.12543e-38
2.30574e-36
1.05008e-34
3.49022e-33
6.4663e-32
6.78654e-32
6.78556e-32
6.44745e-32
3.3994e-33
1.81997e-55
1.98682e-53
2.13174e-51
2.22164e-49
2.24069e-47
2.17662e-45
2.02342e-43
1.78441e-41
1.47501e-39
1.12393e-37
7.70856e-36
4.59123e-34
2.23931e-32
8.01157e-31
1.6048e-29
1.67853e-29
1.67832e-29
1.60053e-29
7.79308e-31
2.11721e-53
2.38536e-51
2.64721e-49
2.86145e-47
3.00234e-45
3.0438e-43
2.96303e-41
2.74593e-39
2.39427e-37
1.93241e-35
1.41036e-33
8.98452e-32
4.71239e-30
1.82333e-28
3.97386e-27
4.14216e-27
4.14173e-27
3.96427e-27
1.77154e-28
2.35856e-51
2.74458e-49
3.15356e-47
3.53974e-45
3.86903e-43
4.09995e-41
4.18659e-39
4.08532e-37
3.76638e-35
3.22911e-33
2.51646e-31
1.72131e-29
9.75251e-28
4.10508e-26
9.82788e-25
1.02079e-24
1.0207e-24
9.80658e-25
3.98343e-26
2.5032e-49
3.01064e-47
3.58471e-45
4.18269e-43
4.76839e-41
5.28911e-39
5.6748e-37
5.84259e-35
5.70959e-33
5.21581e-31
4.35575e-29
3.2126e-27
1.97689e-25
9.13117e-24
2.43819e-22
2.52292e-22
2.52275e-22
2.43347e-22
8.84549e-24
2.51552e-47
3.12852e-45
3.86273e-43
4.68907e-41
5.58122e-39
6.48803e-37
7.32568e-35
7.97385e-33
8.28103e-31
8.08577e-29
7.26323e-27
5.80443e-25
3.90908e-23
2.00852e-21
6.11722e-20
6.30396e-20
6.30363e-20
6.10679e-20
1.94109e-21
2.37559e-45
3.05568e-43
3.91351e-41
4.94499e-39
6.14947e-37
7.49929e-35
8.92327e-33
1.02882e-30
1.13829e-28
1.19172e-26
1.15623e-24
1.00769e-22
7.51488e-21
4.38301e-19
1.56447e-17
1.6053e-17
1.60524e-17
1.56218e-17
4.22496e-19
2.08869e-43
2.77781e-41
3.68972e-39
4.85281e-37
6.3065e-35
8.07253e-33
1.01327e-30
1.23942e-28
1.4642e-26
1.64878e-24
1.7366e-22
1.66631e-20
1.40014e-18
9.50756e-17
4.07157e-15
4.16046e-15
4.16035e-15
4.0667e-15
9.15329e-17
1.68989e-41
2.3213e-39
3.19484e-37
4.37026e-35
5.93176e-33
7.96817e-31
1.05538e-28
1.37079e-26
1.73202e-24
2.1046e-22
2.42281e-20
2.59452e-18
2.51108e-16
2.03261e-14
1.05559e-12
1.07473e-12
1.07471e-12
1.05464e-12
1.96151e-14
1.23957e-39
1.75495e-37
2.49743e-35
3.54591e-33
5.01745e-31
7.06234e-29
9.85974e-27
1.35925e-24
1.8382e-22
2.41821e-20
3.06919e-18
3.72965e-16
4.24688e-14
4.15206e-12
2.61121e-10
2.65076e-10
2.65074e-10
2.60965e-10
4.03629e-12
8.08729e-38
1.17556e-35
1.7229e-33
2.5287e-31
3.71502e-29
5.45754e-27
8.00175e-25
1.16726e-22
1.68697e-20
2.40737e-18
3.39597e-16
4.7491e-14
6.43755e-12
7.60839e-10
5.79776e-08
5.87132e-08
5.87129e-08
5.79586e-08
7.48043e-10
4.57715e-36
6.78656e-34
1.01715e-31
1.53154e-29
2.31729e-27
3.52268e-25
5.37644e-23
8.22687e-21
1.26082e-18
1.94142e-16
3.03856e-14
4.88727e-12
7.85198e-10
1.11969e-07
1.06528e-05
1.07627e-05
1.07627e-05
1.06515e-05
1.11464e-07
2.17441e-34
3.25298e-32
4.92526e-30
7.50376e-28
1.15114e-25
1.77909e-23
2.77058e-21
4.34718e-19
6.88011e-17
1.10645e-14
1.84419e-12
3.25796e-10
5.99102e-08
1.03979e-05
0.00142757
0.00143791
0.00143791
0.00142757
1.04548e-05
8.30446e-33
1.23146e-30
1.84469e-28
2.77389e-26
4.1872e-24
6.34238e-22
9.62832e-20
1.46005e-17
2.19369e-15
3.21276e-13
4.4631e-11
5.65337e-09
6.1893e-07
5.43305e-05
0.00338487
0.00343858
0.00343858
0.00338488
5.4946e-05
2.41706e-31
3.45654e-29
4.95414e-27
7.05198e-25
9.9301e-23
1.37446e-20
1.85254e-18
2.40018e-16
2.93937e-14
3.33155e-12
3.40453e-10
3.03446e-08
2.25621e-06
0.000131031
0.00530819
0.00543693
0.00543693
0.00530822
0.000133284
5.07859e-30
6.76612e-28
8.90681e-26
1.14414e-23
1.4245e-21
1.7041e-19
1.93781e-17
2.06761e-15
2.03797e-13
1.82113e-11
1.44142e-09
9.80557e-08
5.49979e-06
0.000238846
0.0072009
0.00743414
0.00743414
0.00720099
0.000244342
7.50625e-29
9.08946e-27
1.07318e-24
1.21817e-22
1.31985e-20
1.3535e-18
1.30084e-16
1.15809e-14
9.41776e-13
6.877e-11
4.41258e-09
2.41772e-07
1.08672e-05
0.000376916
0.00907204
0.00943785
0.00943785
0.00907228
0.00038778
7.90274e-28
8.62579e-26
9.103e-24
9.1496e-22
8.69638e-20
7.75259e-18
6.42145e-16
4.8876e-14
3.3735e-12
2.0773e-10
1.11768e-08
5.11089e-07
1.91009e-05
0.000549583
0.0109816
0.0115116
0.0115116
0.0109821
0.000568681
6.09794e-27
5.97225e-25
5.62807e-23
5.02382e-21
4.21891e-19
3.30733e-17
2.39856e-15
1.5922e-13
9.55078e-12
5.09523e-10
2.36871e-08
9.33756e-07
3.0033e-05
0.000743179
0.0127956
0.0135079
0.0135079
0.0127966
0.000773209
3.73738e-26
3.29989e-24
2.7957e-22
2.23565e-20
1.67642e-18
1.16994e-16
7.53248e-15
4.42789e-13
2.34679e-11
1.104e-09
4.51791e-08
1.56562e-06
4.42283e-05
0.00096137
0.0145779
0.0154935
0.0154935
0.0145794
0.0010056
1.9053e-25
1.52562e-23
1.17033e-21
8.45377e-20
5.71356e-18
3.58669e-16
2.07341e-14
1.09257e-12
5.18306e-11
2.17961e-09
7.9648e-08
2.46261e-06
6.20483e-05
0.00120362
0.0163371
0.0174763
0.0174764
0.0163396
0.00126566
8.38975e-25
6.13377e-23
4.29157e-21
2.8219e-19
1.73309e-17
9.87076e-16
5.16984e-14
2.46513e-12
1.0571e-10
4.01475e-09
1.32405e-07
3.6931e-06
8.39469e-05
0.00147047
0.0180846
0.0194676
0.0194677
0.0180883
0.00155442
3.24841e-24
2.18631e-22
1.40714e-20
8.49684e-19
4.78441e-17
2.49452e-15
1.19435e-13
5.19931e-12
2.03315e-10
7.03426e-09
2.11161e-07
5.35825e-06
0.000110798
0.0017672
0.0198573
0.0215086
0.0215088
0.0198627
0.00187799
1.09555e-23
6.82508e-22
4.06593e-20
2.27018e-18
1.18085e-16
5.68232e-15
2.50886e-13
1.00639e-11
3.62378e-10
1.15379e-08
3.18594e-07
7.43469e-06
0.000141406
0.00207675
0.0215608
0.023489
0.0234893
0.0215682
0.00221815
3.36347e-23
1.94855e-21
1.07977e-19
5.60362e-18
2.70727e-16
1.20921e-14
4.95252e-13
1.84183e-11
6.14568e-10
1.81254e-08
4.63495e-07
1.00161e-05
0.000176484
0.00240417
0.0232347
0.0254529
0.0254534
0.0232448
0.00258065
9.56392e-23
5.17292e-21
2.67754e-19
1.29719e-17
5.8474e-16
2.43566e-14
9.29892e-13
3.22236e-11
1.00154e-09
2.75079e-08
6.54988e-07
1.31812e-05
0.000216395
0.00275042
0.0248911
0.0274127
0.0274133
0.0249043
0.00296682
2.55556e-22
1.29529e-20
6.28588e-19
2.85364e-17
1.20479e-15
4.69817e-14
1.67857e-12
5.44175e-11
1.58191e-09
4.06304e-08
9.04695e-07
1.7029e-05
0.00026165
0.00311723
0.0265418
0.0293813
0.0293822
0.0265588
0.00337888
6.44183e-22
3.07322e-20
1.40442e-18
6.00032e-17
2.38279e-15
8.7352e-14
2.93257e-12
8.92947e-11
2.43723e-09
5.87603e-08
1.22802e-06
2.16982e-05
0.000313135
0.00350912
0.0282095
0.0313851
0.0313863
0.0282311
0.00382226
1.51003e-21
6.8063e-20
2.94068e-18
1.18739e-16
4.45468e-15
1.5423e-13
4.88851e-12
1.40497e-10
3.61876e-09
8.23202e-08
1.62325e-06
2.70673e-05
0.000368859
0.00390909
0.0298258
0.0333407
0.0333423
0.0298528
0.00427795
3.36812e-21
1.43817e-19
5.89092e-18
2.25446e-16
8.01423e-15
2.62849e-13
7.89063e-12
2.14747e-10
5.23705e-09
1.12793e-07
2.10594e-06
3.32597e-05
0.000429587
0.00432173
0.0314156
0.0352768
0.0352788
0.0314488
0.00475132
7.21534e-21
2.92519e-19
1.1386e-17
4.13981e-16
1.39785e-14
4.35401e-13
1.24112e-11
3.207e-10
7.42512e-09
1.51828e-07
2.69173e-06
4.0381e-05
0.00049581
0.00474926
0.0329915
0.0372076
0.0372101
0.0330319
0.00524507
1.49545e-20
5.7683e-19
2.13803e-17
7.40072e-16
2.3786e-14
7.05088e-13
1.91251e-11
4.70202e-10
1.03579e-08
2.01526e-07
3.40015e-06
4.85634e-05
0.000568156
0.00519405
0.0345487
0.0391298
0.039133
0.0345973
0.00576221
2.99933e-20
1.10358e-18
3.90499e-17
1.29005e-15
3.95613e-14
1.11869e-12
2.894e-11
6.78494e-10
1.42515e-08
2.64386e-07
4.25389e-06
5.79603e-05
0.000647288
0.00564359
0.0343287
0.0392718
0.0392758
0.0343867
0.00629088
5.75661e-20
2.0256e-18
6.86046e-17
2.16894e-15
6.36415e-14
1.72164e-12
4.2603e-11
9.55328e-10
1.91917e-08
3.40528e-07
5.24116e-06
6.83321e-05
0.000730216
0.00606399
0.0339264
0.0391977
0.0392026
0.0339947
0.00679421
1.0712e-19
3.61075e-18
1.17259e-16
3.5541e-15
9.99687e-14
2.59217e-12
6.14789e-11
1.32125e-09
2.5439e-08
4.32643e-07
6.38363e-06
7.98e-05
0.000817074
0.00646076
0.0335328
0.0391039
0.0391099
0.0336126
0.00727784
1.94484e-19
6.28869e-18
1.96101e-16
5.70681e-15
1.54106e-13
3.83605e-12
8.73365e-11
1.80179e-09
3.3303e-08
5.43785e-07
7.70449e-06
9.24797e-05
0.000908012
0.00683863
0.0331586
0.0390055
0.0390127
0.0332511
0.00774665
3.46044e-19
1.07478e-17
3.22237e-16
9.01528e-15
2.34023e-13
5.5995e-12
1.22539e-10
2.42994e-09
4.31729e-08
6.77695e-07
9.23138e-06
0.000106505
0.00100329
0.00720153
0.0328059
0.0389081
0.0389166
0.0329123
0.00820482
6.02944e-19
1.80176e-17
5.20218e-16
1.4014e-14
3.50239e-13
8.06737e-12
1.69942e-10
3.24378e-09
5.5475e-08
8.38222e-07
1.09901e-05
0.000121973
0.00110274
0.0075472
0.0324234
0.0387585
0.0387686
0.0325453
0.00864994
1.021e-18
2.94048e-17
8.19031e-16
2.12831e-14
5.13049e-13
1.13978e-11
2.31564e-10
4.26279e-09
7.03097e-08
1.02459e-06
1.29537e-05
0.000138527
0.00120391
0.00787607
0.032106
0.0386545
0.0386664
0.0322444
0.00907998
1.69502e-18
4.70969e-17
1.2669e-15
3.17927e-14
7.40091e-13
1.58771e-11
3.11489e-10
5.53727e-09
8.8198e-08
1.24115e-06
1.51496e-05
0.000156277
0.00130697
0.0081875
0.0318013
0.038543
0.0385569
0.0319575
0.00949447
2.77327e-18
7.44017e-17
1.93454e-15
4.69246e-14
1.05582e-12
2.18928e-11
4.15146e-10
7.13331e-09
1.09824e-07
1.49375e-06
1.7617e-05
0.000175418
0.00141275
0.00848609
0.0315088
0.0384271
0.0384432
0.0316841
0.00989884
4.47714e-18
1.16008e-16
2.91748e-15
6.8459e-14
1.49024e-12
2.98969e-11
5.48517e-10
9.11902e-09
1.35834e-07
1.78723e-06
2.03811e-05
0.000196006
0.00152094
0.00876863
0.0311951
0.0382705
0.0382891
0.0313909
0.0102896
7.18024e-18
1.78922e-16
4.34318e-15
9.85102e-14
2.07469e-12
4.02921e-11
7.15877e-10
1.15277e-08
1.66336e-07
2.11982e-06
2.34041e-05
0.00021767
0.00162995
0.00904028
0.0309306
0.0381512
0.0381724
0.0311481
0.0106702
1.22939e-17
2.86946e-16
6.60922e-15
1.43271e-13
2.89814e-12
5.42421e-11
9.30852e-10
1.44994e-08
2.0256e-07
2.5004e-06
2.67359e-05
0.000240614
0.00174031
0.00930071
0.0306864
0.0380436
0.0380679
0.0309268
0.011041
2.82518e-17
5.73754e-16
1.18114e-14
2.3336e-13
4.37449e-12
7.68807e-11
1.25129e-09
1.8619e-08
2.49734e-07
2.96958e-06
3.06454e-05
0.000266337
0.00185908
0.00957691
0.030527
0.0380658
0.0380935
0.0307931
0.011436
1.09588e-16
1.89214e-15
3.31286e-14
5.58355e-13
9.02684e-12
1.39062e-10
2.02101e-09
2.73437e-08
3.38854e-07
3.77157e-06
3.67939e-05
0.000304385
0.00203136
0.0100367
0.0309015
0.0390241
0.0390571
0.0312055
0.0120681
5.70516e-16
9.14711e-15
1.46213e-13
2.20423e-12
3.12789e-11
4.16861e-10
5.20009e-09
6.03851e-08
6.46967e-07
6.3068e-06
5.47641e-05
0.000410196
0.00251997
0.0116562
0.0344558
0.0456686
0.0457171
0.0348653
0.0141761
2.91331e-15
4.58019e-14
7.13118e-13
1.03706e-11
1.40227e-10
1.75427e-09
2.01912e-08
2.124e-07
2.02546e-06
1.73222e-05
0.000130836
0.0008523
0.00460246
0.0192015
0.054205
0.0812759
0.0813893
0.0550551
0.0238035
1.27374e-14
1.99401e-13
3.08607e-12
4.44976e-11
5.94475e-10
7.31368e-09
8.22683e-08
8.38951e-07
7.67689e-06
6.22335e-05
0.000439593
0.00264474
0.0131039
0.0506501
0.139155
0.233669
0.234046
0.141792
0.0637528
4.46809e-14
6.99065e-13
1.08079e-11
1.55573e-10
2.07304e-09
2.54076e-08
2.84254e-07
2.87674e-06
2.60477e-05
0.000208148
0.00144252
0.00847099
0.0408066
0.153678
0.419405
0.7361
0.737335
0.427851
0.194482
1.18804e-13
1.85926e-12
2.87482e-11
4.13781e-10
5.51196e-09
6.75117e-08
7.54475e-07
7.62262e-06
6.88485e-05
0.000548243
0.00378128
0.0220674
0.105532
0.394839
1.07678
1.91481
1.91805
1.09878
0.500363
2.25438e-13
3.52912e-12
5.45808e-11
7.85741e-10
1.04679e-08
1.28214e-07
1.43268e-06
1.44703e-05
0.000130627
0.00103932
0.0071596
0.0417158
0.199118
0.743769
2.02859
3.62183
3.62796
2.07018
0.942872
2.99593e-13
4.68989e-12
7.25311e-11
1.04411e-09
1.39091e-08
1.70346e-07
1.90321e-06
1.92191e-05
0.000173452
0.00137957
0.0094991
0.0553141
0.263842
0.984915
2.68598
4.80055
4.80867
2.74112
1.24874
3.31617e-13
5.19094e-12
8.02758e-11
1.15553e-09
1.53924e-08
1.88499e-07
2.10583e-06
2.1263e-05
0.000191872
0.0015258
0.0105035
0.0611443
0.291544
1.08791
2.96626
5.30297
5.31195
3.02721
1.37943
3.41582e-13
5.34689e-12
8.26867e-11
1.19022e-09
1.58543e-08
1.94151e-07
2.16891e-06
2.1899e-05
0.000197598
0.00157118
0.0108145
0.0629427
0.300044
1.11931
3.05125
5.45536
5.46461
3.114
1.41934
3.44137e-13
5.38699e-12
8.33084e-11
1.19919e-09
1.59739e-08
1.95618e-07
2.18528e-06
2.20638e-05
0.000199078
0.00158284
0.0108936
0.0633928
0.302125
1.1268
3.07106
5.49096
5.50027
3.13425
1.4289
3.44893e-13
5.39897e-12
8.34954e-11
1.2019e-09
1.60102e-08
1.96062e-07
2.19023e-06
2.21132e-05
0.000199513
0.00158618
0.0109153
0.0635085
0.30261
1.12833
3.0747
5.49761
5.50693
3.13801
1.43092
3.45366e-13
5.40644e-12
8.36115e-11
1.20357e-09
1.60323e-08
1.9633e-07
2.19315e-06
2.21416e-05
0.000199755
0.00158794
0.0109258
0.0635583
0.30278
1.1287
3.07515
5.49855
5.50788
3.13851
1.43145
3.45883e-13
5.41445e-12
8.37339e-11
1.2053e-09
1.60548e-08
1.96595e-07
2.19598e-06
2.21684e-05
0.000199976
0.00158949
0.0109347
0.0635969
0.302893
1.12885
3.07508
5.49853
5.50788
3.13848
1.43172
3.46488e-13
5.42368e-12
8.38724e-11
1.20722e-09
1.60793e-08
1.9688e-07
2.19895e-06
2.2196e-05
0.000200199
0.00159101
0.0109431
0.0636319
0.302987
1.12894
3.07488
5.49831
5.50766
3.13831
1.4319
3.47117e-13
5.43314e-12
8.40123e-11
1.20914e-09
1.61034e-08
1.97155e-07
2.20178e-06
2.22216e-05
0.000200401
0.00159235
0.0109502
0.0636596
0.303049
1.12894
3.0745
5.49785
5.50721
3.13796
1.43197
3.47623e-13
5.44066e-12
8.41225e-11
1.21063e-09
1.61219e-08
1.97363e-07
2.20387e-06
2.22402e-05
0.000200542
0.00159324
0.0109544
0.0636722
0.303052
1.12877
3.0738
5.49697
5.50633
3.13727
1.4318
3.47893e-13
5.44465e-12
8.41803e-11
1.2114e-09
1.61313e-08
1.97466e-07
2.20486e-06
2.22484e-05
0.000200598
0.0015935
0.0109549
0.0636662
0.302983
1.1284
3.07274
5.49561
5.50497
3.13621
1.43136
3.47991e-13
5.44606e-12
8.42002e-11
1.21165e-09
1.61341e-08
1.97493e-07
2.20507e-06
2.22493e-05
0.000200592
0.00159333
0.0109527
0.0636473
0.302865
1.1279
3.07144
5.49394
5.50329
3.13488
1.43074
3.48006e-13
5.44623e-12
8.42015e-11
1.21165e-09
1.61337e-08
1.97482e-07
2.20487e-06
2.22462e-05
0.000200552
0.00159291
0.0109489
0.0636203
0.302716
1.12731
3.06997
5.492
5.50136
3.13339
1.43
3.47949e-13
5.44525e-12
8.41847e-11
1.21138e-09
1.61297e-08
1.97426e-07
2.20415e-06
2.22379e-05
0.000200466
0.00159211
0.0109427
0.0635792
0.302504
1.1265
3.06794
5.48908
5.49843
3.13132
1.42898
3.47604e-13
5.43954e-12
8.40921e-11
1.20998e-09
1.61102e-08
1.97176e-07
2.20122e-06
2.22067e-05
0.00020017
0.00158963
0.0109247
0.0634705
0.301971
1.12451
3.06272
5.48044
5.48978
3.12598
1.42644
3.45858e-13
5.41094e-12
8.36321e-11
1.20312e-09
1.60157e-08
1.95984e-07
2.18753e-06
2.2065e-05
0.000198861
0.00157901
0.0108503
0.063031
0.299858
1.11662
3.0414
5.44293
5.45219
3.10418
1.41638
3.38559e-13
5.29143e-12
8.17124e-11
1.17454e-09
1.56233e-08
1.91048e-07
2.13107e-06
2.14831e-05
0.000193516
0.00153586
0.0105497
0.0612657
0.291392
1.08495
2.95508
5.28884
5.29778
3.01593
1.37602
3.14852e-13
4.9031e-12
7.54725e-11
1.0816e-09
1.43473e-08
1.75e-07
1.94755e-06
1.95921e-05
0.000176157
0.00139584
0.0095748
0.0555413
0.263935
0.982111
2.67403
4.78526
4.79316
2.72859
1.24495
2.59882e-13
4.00199e-12
6.09835e-11
8.65676e-10
1.1381e-08
1.37671e-07
1.52047e-06
1.51899e-05
0.000135727
0.00106959
0.00730227
0.0421917
0.199863
0.741934
2.01691
3.60644
3.61193
2.05681
0.938881
1.80829e-13
2.70541e-12
4.01257e-11
5.54692e-10
7.10694e-09
8.38622e-08
9.04574e-07
8.83877e-06
7.73766e-05
0.000598556
0.00401995
0.0229027
0.107246
0.394603
1.06616
1.90011
1.9021
1.08487
0.496305
1.25821e-13
1.80365e-12
2.56258e-11
3.38598e-10
4.13829e-09
4.65046e-08
4.77169e-07
4.43335e-06
3.69206e-05
0.000272127
0.00174643
0.00954901
0.0431636
0.154414
0.40905
0.721303
0.720887
0.413097
0.19022
1.02026e-13
1.41383e-12
1.93615e-11
2.45296e-10
2.8573e-09
3.03943e-08
2.92967e-07
2.53595e-06
1.95084e-05
0.00013174
0.000769489
0.00381648
0.0156846
0.0515512
0.12802
0.217749
0.216298
0.125777
0.0591039
9.45727e-14
1.29179e-12
1.74013e-11
2.16114e-10
2.45684e-09
2.53606e-08
2.3545e-07
1.94395e-06
1.40811e-05
8.8039e-05
0.000465891
0.00203887
0.00718701
0.0198494
0.0417438
0.0636961
0.0619248
0.0375532
0.0186697
9.25835e-14
1.2593e-12
1.68803e-11
2.08372e-10
2.35079e-09
2.40301e-08
2.20283e-07
1.78831e-06
1.26599e-05
7.66527e-05
0.000387313
0.00158272
0.00503024
0.0119112
0.0204721
0.0262429
0.0243906
0.0157869
0.00852122
9.181e-14
1.24706e-12
1.66895e-11
2.05607e-10
2.31382e-09
2.3577e-08
2.15237e-07
1.73775e-06
1.22098e-05
7.31484e-05
0.000363905
0.00145197
0.00443993
0.00985594
0.0153059
0.0176703
0.015798
0.0104904
0.00587562
9.07365e-14
1.23146e-12
1.6465e-11
2.02605e-10
2.27673e-09
2.31571e-08
2.10915e-07
1.69775e-06
1.18812e-05
7.07919e-05
0.000349465
0.00137847
0.00414088
0.00893371
0.0132973
0.0147823
0.0129117
0.00844828
0.00470788
8.7675e-14
1.18906e-12
1.58849e-11
1.95271e-10
2.19162e-09
2.22574e-08
2.0233e-07
1.62463e-06
1.13326e-05
6.7228e-05
0.000329849
0.00128957
0.00382179
0.0080731
0.0116649
0.0126954
0.0108692
0.00690239
0.00376354
7.88197e-14
1.06831e-12
1.42618e-11
1.75169e-10
1.96396e-09
1.99195e-08
1.80784e-07
1.44859e-06
1.0077e-05
5.9559e-05
0.000290714
0.00112801
0.00330438
0.00685258
0.00964212
0.0103006
0.00864232
0.00529578
0.00280167
5.90515e-14
7.99963e-13
1.06733e-11
1.31005e-10
1.4676e-09
1.48703e-08
1.3479e-07
1.07835e-06
7.48604e-06
4.41234e-05
0.000214543
0.000827764
0.00240369
0.00491436
0.00676978
0.00712107
0.00586963
0.00347798
0.00178292
3.10059e-14
4.19744e-13
5.59645e-12
6.86392e-11
7.68306e-10
7.77764e-09
7.04262e-08
5.62741e-07
3.90095e-06
2.29509e-05
0.00011133
0.000428124
0.00123707
0.00250941
0.00341637
0.00356197
0.0029055
0.00168663
0.000847046
1.1615e-14
1.5711e-13
2.09308e-12
2.565e-11
2.86863e-10
2.9013e-09
2.62455e-08
2.09492e-07
1.45049e-06
8.52208e-06
4.12703e-05
0.000158369
0.000456254
0.00092138
0.00124623
0.00129289
0.00104835
0.000601379
0.00029834
3.29048e-15
4.44693e-14
5.91933e-13
7.24766e-12
8.09839e-11
8.1831e-10
7.39548e-09
5.89715e-08
4.07872e-07
2.39357e-06
1.15761e-05
4.43509e-05
0.000127513
0.00025677
0.00034593
0.000357792
0.00028906
0.000164618
8.10481e-05
7.41186e-16
1.00075e-14
1.33094e-13
1.62815e-12
1.81762e-11
1.83494e-10
1.65676e-09
1.31981e-08
9.11912e-08
5.34576e-07
2.58237e-06
9.88075e-06
2.83633e-05
5.6999e-05
7.65905e-05
7.90574e-05
6.37158e-05
3.61139e-05
1.76921e-05
1.3786e-16
1.85964e-15
2.47098e-14
3.02005e-13
3.36842e-12
3.39737e-11
3.06459e-10
2.43899e-09
1.68354e-08
9.85909e-08
4.75751e-07
1.81822e-06
5.2125e-06
1.04587e-05
1.40273e-05
1.44585e-05
1.16327e-05
6.57169e-06
3.20848e-06
2.17816e-17
2.93539e-16
3.89683e-15
4.75839e-14
5.3024e-13
5.34302e-12
4.81515e-11
3.82856e-10
2.64016e-09
1.5446e-08
7.44589e-08
2.84263e-07
8.13993e-07
1.63115e-06
2.18465e-06
2.24938e-06
1.80743e-06
1.01864e-06
4.96121e-07
2.98714e-18
4.02172e-17
5.33411e-16
6.50748e-15
7.24477e-14
7.2935e-13
6.56681e-12
5.2164e-11
3.59379e-10
2.10049e-09
1.01157e-08
3.85799e-08
1.10359e-07
2.20904e-07
2.95536e-07
3.04036e-07
2.44054e-07
1.37299e-07
6.6751e-08
3.61618e-19
4.86391e-18
6.44522e-17
7.85578e-16
8.73776e-15
8.7884e-14
7.90539e-13
6.27384e-12
4.31824e-11
2.52152e-10
1.21317e-09
4.62241e-09
1.32096e-08
2.64158e-08
3.53083e-08
3.62989e-08
2.9114e-08
1.63562e-08
7.94131e-09
3.91383e-20
5.25917e-19
6.96261e-18
8.47862e-17
9.42186e-16
9.46771e-15
8.50857e-14
6.74626e-13
4.63908e-12
2.70633e-11
1.30087e-10
4.95195e-10
1.41383e-09
2.82478e-09
3.77282e-09
3.87647e-09
3.10707e-09
1.74365e-09
8.45719e-10
3.49384e-21
4.69071e-20
6.20488e-19
7.54965e-18
8.38256e-17
8.41634e-16
7.55739e-15
5.98708e-14
4.11357e-13
2.39776e-12
1.15158e-11
4.38003e-11
1.24953e-10
2.49466e-10
3.32989e-10
3.41983e-10
2.73963e-10
1.53619e-10
7.44562e-11
)
;

boundaryField
{
    top
    {
        type            zeroGradient;
    }
    left
    {
        type            fixedValue;
        value           uniform 0;
    }
    bottom
    {
        type            zeroGradient;
    }
    right
    {
        type            zeroGradient;
    }
    frontAndBack
    {
        type            empty;
    }
}


// ************************************************************************* //
