/*--------------------------------*- C++ -*----------------------------------*\
| =========                 |                                                 |
| \\      /  F ield         | OpenFOAM: The Open Source CFD Toolbox           |
|  \\    /   O peration     | Version:  v1806                                 |
|   \\  /    A nd           | Web:      www.OpenFOAM.com                      |
|    \\/     M anipulation  |                                                 |
\*---------------------------------------------------------------------------*/
FoamFile
{
    version     2.0;
    format      ascii;
    class       volScalarField;
    location    "0.005";
    object      T;
}
// * * * * * * * * * * * * * * * * * * * * * * * * * * * * * * * * * * * * * //

dimensions      [0 0 0 1 0 0 0];


internalField   nonuniform List<scalar> 
1881
(
4.61552e-173
6.21932e-171
7.94133e-169
9.49438e-167
1.05663e-164
1.08712e-162
1.02558e-160
8.78399e-159
6.74703e-157
4.57591e-155
2.68504e-153
1.32583e-151
5.29306e-150
1.60446e-148
3.29883e-147
3.53265e-146
3.44156e-146
2.3107e-147
8.25046e-149
2.26261e-170
3.07402e-168
3.95765e-166
4.77111e-164
5.35444e-162
5.55567e-160
5.28602e-158
4.56648e-156
3.53804e-154
2.42058e-152
1.4329e-150
7.13853e-149
2.87547e-147
8.79497e-146
1.82462e-144
1.97123e-143
1.92163e-143
1.28681e-144
4.58098e-146
1.10153e-167
1.50901e-165
1.95895e-163
2.38142e-161
2.69522e-159
2.82039e-157
2.70661e-155
2.35848e-153
1.84333e-151
1.27227e-149
7.59846e-148
3.81943e-146
1.55241e-144
4.79144e-143
1.00309e-141
1.09335e-140
1.06652e-140
7.12271e-142
2.52803e-143
5.3138e-165
7.3405e-163
9.60926e-161
1.17806e-158
1.34467e-156
1.41924e-154
1.37382e-152
1.20761e-150
9.5217e-149
6.63045e-147
3.99554e-145
2.02659e-143
8.31228e-142
2.58909e-140
5.47011e-139
6.01601e-138
5.87206e-138
3.91089e-139
1.38381e-140
2.5394e-162
3.5376e-160
4.6702e-158
5.77438e-156
6.64784e-154
7.07746e-152
6.91098e-150
6.12854e-148
4.87529e-146
3.42544e-144
2.08291e-142
1.06613e-140
4.41315e-139
1.38734e-137
2.9583e-136
3.28311e-135
3.20657e-135
2.12964e-136
7.51184e-138
1.2019e-159
1.68862e-157
2.24829e-155
2.8038e-153
3.25597e-151
3.49677e-149
3.4447e-147
3.08194e-145
2.47376e-143
1.75386e-141
1.07623e-139
5.5595e-138
2.32269e-136
7.37004e-135
1.58628e-133
1.77662e-132
1.73628e-132
1.14985e-133
4.04287e-135
5.63246e-157
7.98144e-155
1.07184e-152
1.34828e-150
1.57944e-148
1.71125e-146
1.7008e-144
1.53539e-142
1.24358e-140
8.89759e-139
5.51029e-137
2.87297e-135
1.21156e-133
3.88066e-132
8.43153e-131
9.53079e-130
9.32023e-130
6.15417e-131
2.15676e-132
2.61281e-154
3.73458e-152
5.05879e-150
6.41934e-148
7.58642e-146
8.29284e-144
8.3164e-142
7.57572e-140
6.19215e-138
4.4713e-136
2.7949e-134
1.47091e-132
6.26176e-131
2.02478e-129
4.4413e-128
5.06738e-127
4.9585e-127
3.26428e-128
1.14018e-129
1.19943e-151
1.72938e-149
2.36312e-147
3.0252e-145
3.6071e-143
3.97847e-141
4.026e-139
3.70104e-137
3.05308e-135
2.22517e-133
1.40399e-131
7.4591e-130
3.20576e-128
1.04659e-126
2.31781e-125
2.66958e-124
2.61384e-124
1.71545e-125
5.97153e-127
5.44713e-149
7.92318e-147
1.09224e-144
1.41073e-142
1.69723e-140
1.88897e-138
1.92906e-136
1.78976e-134
1.49019e-132
1.09632e-130
6.98304e-129
3.7455e-127
1.62529e-125
5.3577e-124
1.1981e-122
1.39313e-121
1.36488e-121
8.92945e-123
3.09758e-124
2.44655e-146
3.59034e-144
4.99359e-142
6.50776e-140
7.9005e-138
8.87366e-136
9.1458e-134
8.56456e-132
7.19822e-130
5.34601e-128
3.43781e-126
1.86178e-124
8.15767e-123
2.71556e-121
6.13238e-120
7.19956e-119
7.05783e-119
4.60258e-120
1.59095e-121
1.08641e-143
1.60863e-141
2.2575e-139
2.96875e-137
3.63715e-135
4.12295e-133
4.28907e-131
4.05434e-129
3.43994e-127
2.57931e-125
1.67472e-123
9.15824e-122
4.05235e-120
1.36235e-118
3.1071e-117
3.68345e-116
3.61312e-116
2.34843e-117
8.08827e-119
4.76804e-141
7.12395e-139
1.00883e-136
1.33884e-134
1.65545e-132
1.89409e-130
1.98897e-128
1.898e-126
1.62584e-124
1.23089e-122
8.07019e-121
4.45676e-119
1.99166e-117
6.76279e-116
1.55789e-114
1.8651e-113
1.83059e-113
1.18581e-114
4.06895e-116
2.06746e-138
3.11725e-136
4.45486e-134
5.96683e-132
7.44676e-130
8.60055e-128
9.11733e-126
8.78389e-124
7.59727e-122
5.80802e-120
3.84558e-118
2.14489e-116
9.68155e-115
3.32071e-113
7.72734e-112
9.34346e-111
9.17608e-111
5.92341e-112
2.02484e-113
8.85373e-136
1.34725e-133
1.94318e-131
2.62699e-129
3.30946e-127
3.8586e-125
4.12974e-123
4.01729e-121
3.50861e-119
2.7088e-117
1.81143e-115
1.02051e-113
4.65312e-112
1.61232e-110
3.79039e-109
4.62936e-108
4.54913e-108
2.92614e-109
9.96387e-111
3.74314e-133
5.74889e-131
8.36922e-129
1.14211e-126
1.45251e-124
1.7098e-122
1.84769e-120
1.81498e-118
1.60084e-116
1.24825e-114
8.43145e-113
4.79834e-111
2.21031e-109
7.73795e-108
1.83798e-106
2.26769e-105
2.22971e-105
1.42899e-106
4.84658e-108
1.56167e-130
2.42103e-128
3.55776e-126
4.90132e-124
6.2933e-122
7.4799e-120
8.16233e-118
8.09712e-116
7.21308e-114
5.68111e-112
3.87643e-110
2.22875e-108
1.0373e-106
3.66935e-105
8.8071e-104
1.09782e-102
1.08007e-102
6.8961e-104
2.3294e-105
6.42688e-128
1.0058e-125
1.49211e-123
2.07535e-121
2.6906e-119
3.22924e-117
3.55872e-115
3.56555e-113
3.2083e-111
2.55264e-109
1.75968e-107
1.02223e-105
4.80747e-104
1.71856e-102
4.16856e-101
5.25041e-100
5.16847e-100
3.28734e-101
1.1058e-102
2.60777e-125
4.1202e-123
6.17111e-121
8.66657e-119
1.13459e-116
1.3752e-114
1.53065e-112
1.54906e-110
1.40806e-108
1.13183e-106
7.88343e-105
4.62769e-103
2.19942e-101
7.94633e-100
1.94812e-98
2.47959e-97
2.4423e-97
1.54727e-98
5.18256e-100
1.04278e-122
1.66348e-120
2.51569e-118
3.56759e-116
4.71676e-114
5.77414e-112
6.49171e-110
6.63676e-108
6.09475e-106
4.95005e-104
3.48402e-102
2.06686e-100
9.92839e-99
3.62576e-97
8.98522e-96
1.15585e-94
1.13912e-94
7.18742e-96
2.39691e-97
4.1072e-120
6.61594e-118
1.01033e-115
1.44697e-113
1.93217e-111
2.38919e-109
2.71349e-107
2.80268e-105
2.60057e-103
2.13433e-101
1.51816e-99
9.1029e-98
4.41999e-96
1.63175e-94
4.08805e-93
5.31559e-92
5.2416e-92
3.2935e-93
1.09343e-94
1.59258e-117
2.59064e-115
3.99537e-113
5.77923e-111
7.79504e-109
9.73709e-107
1.11726e-104
1.166e-102
1.09329e-100
9.06808e-99
6.51938e-97
3.95138e-95
1.93962e-93
7.23958e-92
1.83384e-90
2.41054e-89
2.37831e-89
1.488e-90
4.91743e-92
6.07596e-115
9.98208e-113
1.55486e-110
2.27177e-108
3.09542e-106
3.90644e-104
4.52902e-102
4.77627e-100
4.52601e-98
3.79432e-96
2.75746e-94
1.6896e-92
8.38552e-91
3.16479e-89
8.10649e-88
1.07735e-86
1.06354e-86
6.62484e-88
2.17902e-89
2.27943e-112
3.78247e-110
5.95124e-108
8.78393e-106
1.20919e-103
1.54189e-101
1.80643e-99
1.92529e-97
1.844e-95
1.56266e-93
1.1481e-91
7.11275e-90
3.56956e-88
1.36239e-86
3.52929e-85
4.74289e-84
4.68465e-84
2.90489e-85
9.50854e-87
8.4035e-110
1.40863e-107
2.2389e-105
3.33863e-103
4.64379e-101
5.98377e-99
7.08489e-97
7.63218e-95
7.38928e-93
6.33062e-91
4.7027e-89
2.94608e-87
1.49523e-85
5.77199e-84
1.51239e-82
2.05546e-81
2.03132e-81
1.25373e-82
4.08348e-84
3.04247e-107
5.15222e-105
8.27341e-103
1.24657e-100
1.75212e-98
2.2817e-96
2.7306e-94
2.97347e-92
2.91043e-90
2.52111e-88
1.89381e-86
1.19985e-84
6.15931e-83
2.40512e-81
6.37509e-80
8.76355e-79
8.66527e-79
5.3226e-80
1.72477e-81
1.08097e-104
1.84952e-102
3.00087e-100
4.56902e-98
6.49028e-96
8.54279e-94
1.03345e-91
1.13772e-89
1.12596e-87
9.86286e-86
7.49278e-84
4.80157e-82
2.49338e-80
9.85003e-79
2.64156e-77
3.67336e-76
3.63409e-76
2.22121e-77
7.16007e-79
3.7661e-102
6.51117e-100
1.06756e-97
1.64271e-95
2.35854e-93
3.13814e-91
3.83799e-89
4.27213e-87
4.2754e-85
3.78754e-83
2.91038e-81
1.88667e-79
9.912e-78
3.96201e-76
1.07516e-74
1.51268e-73
1.49729e-73
9.10516e-75
2.91925e-76
1.28561e-99
2.24618e-97
3.72196e-95
5.78873e-93
8.40152e-91
1.13013e-88
1.39751e-86
1.57305e-84
1.59212e-82
1.42663e-80
1.10896e-78
7.27323e-77
3.86643e-75
1.56398e-73
4.29521e-72
6.11502e-71
6.05592e-71
3.66336e-72
1.16803e-73
4.29621e-97
7.58648e-95
1.2706e-92
1.99762e-90
2.9311e-88
3.98655e-86
4.98507e-84
5.67495e-82
5.80969e-80
5.26624e-78
4.14165e-76
2.7486e-74
1.47868e-72
6.05375e-71
1.68283e-69
2.42468e-68
2.40247e-68
1.44546e-69
4.58245e-71
1.40417e-94
2.50635e-92
4.2433e-90
6.74452e-88
1.00061e-85
1.37619e-83
1.74043e-81
2.00404e-79
2.07544e-77
1.9034e-75
1.51472e-73
1.01732e-71
5.5394e-70
2.29566e-68
6.46026e-67
9.42185e-66
9.34021e-66
5.58824e-67
1.76122e-68
4.48413e-92
8.09128e-90
1.38492e-87
2.2257e-85
3.3391e-83
4.64459e-81
5.94134e-79
6.92067e-77
7.25149e-75
6.72943e-73
5.41965e-71
3.68422e-69
2.03076e-67
8.52048e-66
2.42774e-64
3.58449e-63
3.55518e-63
2.11482e-64
6.62492e-66
1.39764e-89
2.54977e-87
4.4127e-85
7.17128e-83
1.08809e-80
1.53088e-78
1.98105e-76
2.33471e-74
2.4754e-72
2.32482e-70
1.89512e-68
1.30414e-66
7.278e-65
3.09204e-63
8.92171e-62
1.33378e-60
1.32351e-60
7.8262e-62
2.43639e-63
4.24683e-87
7.83418e-85
1.37103e-82
2.25342e-80
3.45836e-78
4.92226e-76
6.44456e-74
7.68538e-72
8.24655e-70
7.83922e-68
6.46901e-66
4.5072e-64
2.54704e-62
1.09589e-60
3.20262e-59
4.84871e-58
4.81367e-58
2.82893e-59
8.75025e-61
1.25646e-84
2.34396e-82
4.14865e-80
6.89707e-78
1.0708e-75
1.54198e-73
2.04288e-71
2.46554e-69
2.67779e-67
2.5769e-65
2.15301e-63
1.51902e-61
8.69369e-60
3.78882e-58
1.12164e-56
1.72001e-55
1.70838e-55
9.97615e-57
3.06531e-58
3.61453e-82
6.81999e-80
1.22096e-77
2.05341e-75
3.2255e-73
4.70006e-71
6.30179e-69
7.69823e-67
8.46404e-65
8.24681e-63
6.9773e-61
4.98566e-59
2.89032e-57
1.27611e-55
3.82755e-54
5.94614e-53
5.90861e-53
3.42769e-54
1.046e-55
1.00958e-79
1.92689e-77
3.48973e-75
5.93804e-73
9.43843e-71
1.39189e-68
1.88896e-66
2.33601e-64
2.60045e-62
2.56574e-60
2.19854e-58
1.59133e-56
9.34627e-55
4.18117e-53
1.27084e-51
2.00042e-50
1.98868e-50
1.14582e-51
3.47193e-53
2.73344e-77
5.278e-75
9.67123e-73
1.66521e-70
2.6787e-68
3.99842e-66
5.49328e-64
6.87816e-62
7.7536e-60
7.74802e-58
6.72523e-56
4.93167e-54
2.93497e-52
1.33063e-50
4.09914e-49
6.53909e-48
6.50353e-48
3.72076e-49
1.11919e-50
7.16145e-75
1.39914e-72
2.59424e-70
4.52061e-68
7.36058e-66
1.11225e-63
1.54716e-61
1.9617e-59
2.2397e-57
2.26711e-55
1.99368e-53
1.48142e-51
8.93504e-50
4.10605e-48
1.28228e-46
2.07341e-45
2.06301e-45
1.17166e-46
3.49769e-48
1.81207e-72
3.58258e-70
6.7227e-68
1.18574e-65
1.95448e-63
2.99027e-61
4.21214e-59
5.40912e-57
6.25577e-55
6.41552e-53
5.71684e-51
4.30522e-49
2.63208e-47
1.22626e-45
3.8828e-44
6.36524e-43
6.33592e-43
3.57114e-44
1.05774e-45
4.4188e-70
8.84197e-68
1.67941e-65
2.99868e-63
5.0045e-61
7.75352e-59
1.10616e-56
1.43893e-54
1.68603e-52
1.75211e-50
1.58235e-48
1.20791e-46
7.48701e-45
3.53696e-43
1.13576e-41
1.88803e-40
1.88008e-40
1.05135e-41
3.08881e-43
1.03601e-67
2.09844e-65
4.03487e-63
7.29447e-61
1.23278e-58
1.93442e-56
2.79556e-54
3.68436e-52
4.37454e-50
4.60731e-48
4.21782e-46
3.26435e-44
2.05174e-42
9.83033e-41
3.20186e-39
5.39846e-38
5.37782e-38
2.98274e-39
8.68969e-41
2.32927e-65
4.77639e-63
9.29875e-61
1.70235e-58
2.91385e-56
4.63161e-54
6.78145e-52
9.05655e-50
1.08982e-47
1.16351e-45
1.07991e-43
8.47533e-42
5.40281e-40
2.62591e-38
8.67732e-37
1.4842e-35
1.47907e-35
8.13387e-37
2.34905e-38
5.00711e-63
1.03964e-60
2.0496e-58
3.80033e-56
6.58929e-54
1.06115e-51
1.5744e-49
2.13097e-47
2.59939e-45
2.81364e-43
2.64819e-41
2.10796e-39
1.36318e-37
6.72228e-36
2.25417e-34
3.91225e-33
3.90015e-33
2.12587e-34
6.0841e-36
1.02573e-60
2.15682e-58
4.30653e-56
8.08871e-54
1.42092e-51
2.31876e-49
3.48672e-47
4.78391e-45
5.91642e-43
6.49413e-41
6.19943e-39
5.00607e-37
3.28477e-35
1.64387e-33
5.59499e-32
9.85536e-31
9.82828e-31
5.3079e-32
1.50484e-33
1.99493e-58
4.24876e-56
8.59361e-54
1.63531e-51
2.91098e-49
4.81447e-47
7.3386e-45
1.02085e-42
1.28028e-40
1.42534e-38
1.38034e-36
1.13098e-34
7.53138e-33
3.82588e-31
1.32198e-29
2.36392e-28
2.3582e-28
1.26138e-29
3.54131e-31
3.66784e-56
7.91348e-54
1.62164e-51
3.12699e-49
5.64143e-47
9.45807e-45
1.46168e-42
2.0619e-40
2.62279e-38
2.96221e-36
2.91079e-34
2.42046e-32
1.63616e-30
8.43872e-29
2.96096e-27
5.37629e-26
5.36497e-26
2.84101e-27
7.89523e-29
6.34354e-54
1.38671e-51
2.87952e-49
5.62753e-47
1.02916e-44
1.74937e-42
2.74157e-40
3.92255e-38
5.06179e-36
5.80078e-34
5.785e-32
4.88321e-30
3.3515e-28
1.75544e-26
6.25623e-25
1.15375e-23
1.15166e-23
6.03503e-25
1.65944e-26
1.02611e-51
2.27311e-49
4.78388e-47
9.47721e-45
1.75724e-42
3.02899e-40
4.81468e-38
6.98842e-36
9.15052e-34
1.06427e-31
1.07742e-29
9.23427e-28
6.43645e-26
3.42449e-24
1.23994e-22
2.32307e-21
2.31951e-21
1.20224e-22
3.26942e-24
1.5419e-49
3.46203e-47
7.38571e-45
1.48347e-42
2.78931e-40
4.87659e-38
7.86372e-36
1.15817e-33
1.53908e-31
1.81714e-29
1.86784e-27
1.62582e-25
1.15115e-23
6.22288e-22
2.28974e-20
4.35939e-19
4.35384e-19
2.23096e-20
5.99731e-22
2.13499e-47
4.85958e-45
1.0511e-42
2.14091e-40
4.08292e-38
7.24154e-36
1.18488e-33
1.7711e-31
2.38922e-29
2.86418e-27
2.99e-25
2.64377e-23
1.90198e-21
1.04494e-19
3.90833e-18
7.56362e-17
7.55579e-17
3.82547e-18
1.01605e-19
2.69742e-45
6.22527e-43
1.36543e-40
2.82083e-38
5.45746e-36
9.82161e-34
1.63099e-31
2.4748e-29
3.38979e-27
4.12703e-25
4.37656e-23
3.93202e-21
2.87498e-19
1.60567e-17
6.10638e-16
1.20156e-14
1.20057e-14
6.00243e-16
1.57428e-17
3.07197e-43
7.18982e-41
1.59949e-38
3.35219e-36
6.58071e-34
1.20196e-31
2.02618e-29
3.12168e-27
4.34251e-25
5.3707e-23
5.78707e-21
5.28425e-19
3.92783e-17
2.23066e-15
8.62799e-14
1.72671e-12
1.72564e-12
8.51429e-14
2.20381e-15
3.10516e-41
7.37156e-39
1.66365e-36
3.53783e-34
7.04864e-32
1.3069e-29
2.23691e-27
3.50008e-25
4.94602e-23
6.21555e-21
6.80692e-19
6.31875e-17
4.77608e-15
2.75888e-13
1.08564e-11
2.21043e-10
2.20943e-10
1.0751e-11
2.74454e-13
2.72984e-39
6.57464e-37
1.50558e-34
3.24936e-32
6.57178e-30
1.23719e-27
2.15061e-25
3.41833e-23
4.90821e-21
6.26888e-19
6.97941e-17
6.58831e-15
5.0653e-13
2.97697e-11
1.19216e-09
2.47026e-08
2.46951e-08
1.18421e-09
2.97957e-11
2.03018e-37
4.96153e-35
1.15309e-32
2.52622e-30
5.18762e-28
9.91824e-26
1.75138e-23
2.82854e-21
4.12774e-19
5.35962e-17
6.06787e-15
5.8262e-13
4.55758e-11
2.72609e-09
1.11133e-07
2.34425e-06
2.34382e-06
1.10676e-07
2.74262e-09
1.227e-35
3.0434e-33
7.17977e-31
1.59707e-28
3.33064e-26
6.46855e-24
1.16058e-21
1.90498e-19
2.82611e-17
3.73146e-15
4.29707e-13
4.19795e-11
3.34217e-09
2.03518e-07
8.44853e-06
0.000181485
0.000181468
8.43087e-06
2.05606e-07
5.65736e-34
1.42444e-31
3.4118e-29
7.70707e-27
1.63264e-24
3.22164e-22
5.87439e-20
9.80195e-18
1.47865e-15
1.98579e-13
2.32665e-11
2.31329e-09
1.87493e-07
1.16267e-05
0.000491638
0.0107582
0.0107579
0.000491302
1.17816e-05
1.77511e-32
4.53764e-30
1.10363e-27
2.53215e-25
5.44952e-23
1.09276e-20
2.02539e-18
3.43617e-16
5.27191e-14
7.20283e-12
8.58814e-10
8.69223e-08
7.17394e-06
0.00045314
0.0195231
0.435313
0.435314
0.0195239
0.000459994
2.89004e-31
7.49952e-29
1.85198e-26
4.31537e-24
9.43448e-22
1.92234e-19
3.62143e-17
6.2465e-15
9.74649e-13
1.35467e-10
1.64367e-08
1.69345e-06
0.000142321
0.00915697
0.401981
9.13342
9.13342
0.401983
0.00929897
3.05333e-31
7.91948e-29
1.95472e-26
4.55245e-24
9.9475e-22
2.02575e-19
3.81405e-17
6.5748e-15
1.02523e-12
1.42405e-10
1.72669e-08
1.77773e-06
0.000149293
0.00959821
0.421013
9.55798
9.55798
0.421015
0.00974747
3.0583e-31
7.93214e-29
1.95779e-26
4.55946e-24
9.9625e-22
2.02874e-19
3.81955e-17
6.58406e-15
1.02664e-12
1.42596e-10
1.72894e-08
1.77998e-06
0.000149476
0.0096096
0.421496
9.56855
9.56855
0.421498
0.00975908
3.0584e-31
7.9324e-29
1.95785e-26
4.5596e-24
9.96279e-22
2.0288e-19
3.81966e-17
6.58424e-15
1.02667e-12
1.426e-10
1.72898e-08
1.78002e-06
0.00014948
0.0096098
0.421505
9.56873
9.56873
0.421506
0.00975929
3.0584e-31
7.9324e-29
1.95786e-26
4.5596e-24
9.9628e-22
2.0288e-19
3.81966e-17
6.58424e-15
1.02667e-12
1.426e-10
1.72898e-08
1.78002e-06
0.00014948
0.0096098
0.421505
9.56873
9.56873
0.421506
0.00975929
3.0584e-31
7.9324e-29
1.95786e-26
4.5596e-24
9.9628e-22
2.0288e-19
3.81966e-17
6.58424e-15
1.02667e-12
1.426e-10
1.72898e-08
1.78002e-06
0.00014948
0.0096098
0.421505
9.56873
9.56873
0.421506
0.00975929
3.0584e-31
7.9324e-29
1.95786e-26
4.5596e-24
9.9628e-22
2.0288e-19
3.81966e-17
6.58424e-15
1.02667e-12
1.426e-10
1.72898e-08
1.78002e-06
0.00014948
0.0096098
0.421505
9.56873
9.56873
0.421507
0.00975929
3.0584e-31
7.93241e-29
1.95786e-26
4.5596e-24
9.9628e-22
2.0288e-19
3.81966e-17
6.58424e-15
1.02667e-12
1.426e-10
1.72898e-08
1.78002e-06
0.00014948
0.00960989
0.421514
9.56874
9.56874
0.421516
0.00975938
3.05845e-31
7.93253e-29
1.95789e-26
4.55968e-24
9.96299e-22
2.02885e-19
3.81975e-17
6.58443e-15
1.02671e-12
1.42607e-10
1.72911e-08
1.78027e-06
0.000149529
0.00961887
0.422832
9.57007
9.57007
0.422834
0.0097684
3.05997e-31
7.93659e-29
1.95894e-26
4.56227e-24
9.96911e-22
2.03023e-19
3.82272e-17
6.59045e-15
1.02785e-12
1.42808e-10
1.73229e-08
1.78465e-06
0.000150023
0.00966011
0.424771
9.57205
9.57205
0.424773
0.00981014
3.08325e-31
7.99796e-29
1.97432e-26
4.59862e-24
1.00496e-21
2.04681e-19
3.85423e-17
6.64503e-15
1.03635e-12
1.43974e-10
1.74603e-08
1.79803e-06
0.000151036
0.00971321
0.42624
9.57357
9.57357
0.426241
0.00986425
3.08454e-31
8.00131e-29
1.97514e-26
4.60054e-24
1.00538e-21
2.04766e-19
3.85581e-17
6.64771e-15
1.03676e-12
1.44028e-10
1.74666e-08
1.79862e-06
0.000151079
0.00971541
0.426298
9.57363
9.57363
0.4263
0.0098665
3.08458e-31
8.0014e-29
1.97517e-26
4.6006e-24
1.00539e-21
2.04769e-19
3.85585e-17
6.64778e-15
1.03677e-12
1.4403e-10
1.74668e-08
1.79863e-06
0.00015108
0.00971546
0.426299
9.57363
9.57363
0.426301
0.00986654
3.08458e-31
8.0014e-29
1.97517e-26
4.6006e-24
1.00539e-21
2.04769e-19
3.85585e-17
6.64778e-15
1.03677e-12
1.4403e-10
1.74668e-08
1.79864e-06
0.00015108
0.00971546
0.426299
9.57363
9.57363
0.426301
0.00986654
3.08458e-31
8.0014e-29
1.97517e-26
4.6006e-24
1.00539e-21
2.04769e-19
3.85585e-17
6.64778e-15
1.03677e-12
1.4403e-10
1.74668e-08
1.79864e-06
0.00015108
0.00971546
0.426299
9.57363
9.57363
0.426301
0.00986654
3.08458e-31
8.00141e-29
1.97517e-26
4.6006e-24
1.00539e-21
2.04769e-19
3.85585e-17
6.64778e-15
1.03677e-12
1.4403e-10
1.74668e-08
1.79864e-06
0.00015108
0.00971546
0.426299
9.57363
9.57363
0.426301
0.00986654
3.08469e-31
8.00165e-29
1.97522e-26
4.60069e-24
1.00541e-21
2.04771e-19
3.85589e-17
6.64783e-15
1.03677e-12
1.4403e-10
1.74668e-08
1.79864e-06
0.00015108
0.00971546
0.426299
9.57363
9.57363
0.426301
0.00986654
3.09167e-31
8.01707e-29
1.97843e-26
4.60691e-24
1.00652e-21
2.04953e-19
3.85856e-17
6.65132e-15
1.03717e-12
1.44068e-10
1.74697e-08
1.7988e-06
0.000151085
0.00971543
0.426291
9.57345
9.57345
0.426292
0.00986634
3.42153e-31
8.75788e-29
2.13502e-26
4.91506e-24
1.06251e-21
2.14249e-19
3.99785e-17
6.83657e-15
1.05856e-12
1.46145e-10
1.7631e-08
1.80795e-06
0.000151384
0.0097146
0.425819
9.56289
9.56289
0.42581
0.00985477
1.39889e-30
3.28694e-28
7.31441e-26
1.52752e-23
2.97633e-21
5.37467e-19
8.92541e-17
1.35073e-14
1.84291e-12
2.23756e-10
2.37828e-08
2.16494e-06
0.000163436
0.00969808
0.407231
9.13877
9.13875
0.406796
0.00940701
1.86143e-29
4.32042e-27
9.44689e-25
1.92522e-22
3.62769e-20
6.25918e-18
9.77023e-16
1.35874e-13
1.64998e-11
1.70215e-09
1.43367e-07
9.26383e-06
0.000410882
0.00970106
0.0338536
0.449748
0.449354
0.0247197
0.000576871
1.96261e-29
4.55252e-27
9.94805e-25
2.02596e-22
3.81466e-20
6.57633e-18
1.02557e-15
1.42471e-13
1.7278e-11
1.77937e-09
1.49502e-07
9.62054e-06
0.000422941
0.00968482
0.0152646
0.0256352
0.0252241
0.00570715
0.000128819
1.96562e-29
4.55935e-27
9.96265e-25
2.02886e-22
3.81999e-20
6.58525e-18
1.02692e-15
1.42651e-13
1.7299e-11
1.78142e-09
1.49662e-07
9.62967e-06
0.000423241
0.00968401
0.0147928
0.0150699
0.014658
0.00522444
0.000117224
1.96568e-29
4.55949e-27
9.96294e-25
2.02892e-22
3.82009e-20
6.58542e-18
1.02694e-15
1.42654e-13
1.72993e-11
1.78146e-09
1.49665e-07
9.62983e-06
0.000423246
0.00968399
0.0147847
0.0148909
0.014479
0.00521611
0.00011702
1.96568e-29
4.55949e-27
9.96294e-25
2.02892e-22
3.82009e-20
6.58543e-18
1.02695e-15
1.42655e-13
1.72994e-11
1.78146e-09
1.49665e-07
9.62983e-06
0.000423246
0.00968399
0.0147846
0.0148886
0.0144767
0.005216
0.000117017
1.96568e-29
4.55949e-27
9.96294e-25
2.02892e-22
3.82009e-20
6.58543e-18
1.02695e-15
1.42655e-13
1.72994e-11
1.78146e-09
1.49665e-07
9.62983e-06
0.000423246
0.00968399
0.0147846
0.0148886
0.0144767
0.005216
0.000117017
1.96568e-29
4.55949e-27
9.96293e-25
2.02892e-22
3.82009e-20
6.58542e-18
1.02694e-15
1.42654e-13
1.72993e-11
1.78146e-09
1.49665e-07
9.62982e-06
0.000423246
0.00968399
0.0147845
0.0148885
0.0144766
0.0052159
0.000117016
1.96561e-29
4.55933e-27
9.96261e-25
2.02886e-22
3.81997e-20
6.58523e-18
1.02692e-15
1.42651e-13
1.72989e-11
1.78142e-09
1.49662e-07
9.62961e-06
0.000423236
0.00968363
0.0147691
0.0148729
0.014461
0.0052007
0.000116832
1.96225e-29
4.55178e-27
9.94661e-25
2.0257e-22
3.81421e-20
6.57561e-18
1.02546e-15
1.42456e-13
1.7276e-11
1.77913e-09
1.49475e-07
9.61766e-06
0.000422659
0.00965845
0.0130501
0.0131395
0.0127281
0.00349233
0.000102139
1.85484e-29
4.30622e-27
9.41782e-25
1.9196e-22
3.61745e-20
6.24157e-18
9.74173e-16
1.35441e-13
1.64385e-11
1.69419e-09
1.42439e-07
9.16988e-06
0.000402986
0.00918645
0.0106953
0.0107383
0.0103455
0.00156201
5.40578e-05
1.05943e-30
2.43435e-28
5.26722e-26
1.06162e-23
1.97724e-21
3.36979e-19
5.19194e-17
7.12101e-15
8.52005e-13
8.64959e-11
7.15736e-09
4.53089e-07
1.95606e-05
0.000437597
0.000501689
0.000503491
0.000484428
6.63926e-05
2.33796e-06
3.12288e-32
7.10307e-30
1.52074e-27
3.03145e-25
5.58118e-23
9.3977e-21
1.42972e-18
1.93507e-16
2.28319e-14
2.28418e-12
1.86119e-10
1.15922e-08
4.91958e-07
1.08098e-05
1.2258e-05
1.2298e-05
1.18186e-05
1.50082e-06
5.34784e-08
6.23965e-34
1.40526e-31
2.97793e-29
5.87308e-27
1.06928e-24
1.77959e-22
2.67454e-20
3.5739e-18
4.16074e-16
4.10446e-14
3.29539e-12
2.02091e-10
8.438e-09
1.82282e-07
2.04921e-07
2.05533e-07
1.97314e-07
2.34702e-08
8.44436e-10
9.47858e-36
2.11439e-33
4.4365e-31
8.6598e-29
1.55976e-26
2.56688e-24
3.81272e-22
5.03268e-20
5.78429e-18
5.62983e-16
4.45684e-14
2.69312e-12
1.10721e-10
2.35367e-09
2.62748e-09
2.63471e-09
2.52689e-09
2.83948e-10
1.03017e-11
1.1666e-37
2.57838e-35
5.35856e-33
1.0356e-30
1.84602e-28
3.00529e-26
4.41383e-24
5.75791e-22
6.53691e-20
6.28105e-18
4.90595e-16
2.92308e-14
1.18421e-12
2.47929e-11
2.75181e-11
2.75884e-11
2.64355e-11
2.82691e-12
1.03321e-13
1.21133e-39
2.65342e-37
5.46383e-35
1.04585e-32
1.84576e-30
2.97376e-28
4.32044e-26
5.57273e-24
6.25252e-22
5.93431e-20
4.57595e-18
2.69013e-16
1.07471e-14
2.21773e-13
2.44982e-13
2.45566e-13
2.35106e-13
2.40803e-14
8.86022e-16
1.09126e-41
2.36985e-39
4.83662e-37
9.17262e-35
1.60331e-32
2.55741e-30
3.67702e-28
4.69163e-26
5.20476e-24
4.88202e-22
3.71858e-20
2.1583e-18
8.50831e-17
1.73182e-15
1.90551e-15
1.90978e-15
1.82699e-15
1.80261e-16
6.67378e-18
8.70629e-44
1.87501e-41
3.79393e-39
7.13121e-37
1.23498e-34
1.951e-32
2.77716e-30
3.50673e-28
3.84831e-26
3.56917e-24
2.68684e-22
1.54052e-20
5.99635e-19
1.2047e-17
1.32117e-17
1.32396e-17
1.26564e-17
1.20907e-18
4.50258e-20
6.24885e-46
1.33496e-43
2.67885e-41
4.99209e-39
8.56836e-37
1.34111e-34
1.8907e-32
2.3636e-30
2.56698e-28
2.35516e-26
1.75312e-24
9.93488e-23
3.82049e-21
7.58076e-20
8.29093e-20
8.30758e-20
7.93606e-20
7.37369e-21
2.76148e-22
4.05897e-48
8.60473e-46
1.71307e-43
3.16619e-41
5.38825e-39
8.35928e-37
1.16771e-34
1.44592e-32
1.55484e-30
1.41193e-28
1.03983e-26
5.82762e-25
2.21542e-23
4.34446e-22
4.74066e-22
4.74974e-22
4.53436e-22
4.11451e-23
1.54938e-24
)
;

boundaryField
{
    top
    {
        type            zeroGradient;
    }
    left
    {
        type            fixedValue;
        value           uniform 0;
    }
    bottom
    {
        type            zeroGradient;
    }
    right
    {
        type            zeroGradient;
    }
    frontAndBack
    {
        type            empty;
    }
}


// ************************************************************************* //
