/*--------------------------------*- C++ -*----------------------------------*\
| =========                 |                                                 |
| \\      /  F ield         | OpenFOAM: The Open Source CFD Toolbox           |
|  \\    /   O peration     | Version:  v1806                                 |
|   \\  /    A nd           | Web:      www.OpenFOAM.com                      |
|    \\/     M anipulation  |                                                 |
\*---------------------------------------------------------------------------*/
FoamFile
{
    version     2.0;
    format      ascii;
    class       volScalarField;
    location    "0.005";
    object      T;
}
// * * * * * * * * * * * * * * * * * * * * * * * * * * * * * * * * * * * * * //

dimensions      [0 0 0 1 0 0 0];


internalField   nonuniform List<scalar> 
1881
(
-1.01585e-82
-2.33235e-80
-4.39879e-78
-6.23966e-76
-4.3631e-74
8.58594e-72
4.26602e-69
1.03839e-66
1.82144e-64
2.4439e-62
2.47783e-60
1.76651e-58
6.96449e-57
-6.58921e-56
-2.27296e-53
-8.4893e-52
-8.56497e-52
-3.07487e-53
-5.31382e-55
-4.54532e-82
-2.14801e-79
-6.70839e-77
-1.65438e-74
-3.34365e-72
-5.4813e-70
-6.83959e-68
-5.02929e-66
2.46142e-64
1.56726e-61
2.97899e-59
3.66314e-57
3.12515e-55
1.77443e-53
5.83109e-52
7.53781e-51
7.39174e-51
4.31228e-52
1.20833e-53
1.40396e-80
2.00082e-78
8.53893e-77
-6.53019e-74
-2.88296e-71
-7.7648e-69
-1.59852e-66
-2.62685e-64
-3.41337e-62
-3.3072e-60
-1.95154e-58
1.5056e-57
1.75e-54
1.92965e-52
1.06001e-50
2.54298e-49
2.54445e-49
1.0782e-50
2.32278e-52
2.59881e-79
6.65192e-77
1.43388e-74
2.52954e-72
3.32838e-70
2.03107e-68
-4.5495e-66
-1.97612e-63
-4.37483e-61
-6.95933e-59
-8.3833e-57
-7.53073e-55
-4.7115e-53
-1.71127e-51
-1.29728e-50
1.02236e-48
1.05306e-48
1.92395e-50
-1.88659e-52
3.97948e-79
3.96228e-76
1.50146e-73
4.17966e-71
9.42335e-69
1.75381e-66
2.64766e-64
3.02979e-62
2.02755e-60
-8.92623e-59
-5.03195e-56
-8.27252e-54
-8.49906e-52
-5.731e-50
-2.323e-48
-4.25979e-47
-4.23356e-47
-2.05305e-48
-5.03973e-50
-4.34483e-77
-7.85838e-75
-9.88878e-73
-9.03787e-72
4.12555e-68
1.53402e-65
3.74004e-63
7.05153e-61
1.06166e-58
1.26085e-56
1.11955e-54
6.36013e-53
7.45617e-52
-2.29922e-49
-2.01874e-47
-6.16869e-46
-6.20206e-46
-2.37358e-47
-4.50675e-49
-5.54852e-76
-1.58106e-73
-3.80276e-71
-7.71783e-69
-1.2854e-66
-1.60578e-64
-9.82577e-63
1.67148e-60
7.09064e-58
1.44566e-55
2.07254e-53
2.20162e-51
1.69722e-49
8.79931e-48
2.57221e-46
2.50685e-45
2.43023e-45
1.77335e-46
5.59656e-48
1.55773e-75
-3.18823e-73
-2.29351e-70
-7.94008e-68
-2.06767e-65
-4.38812e-63
-7.70839e-61
-1.10362e-58
-1.2202e-56
-8.79194e-55
-4.3541e-54
9.32023e-51
1.45957e-48
1.24267e-46
6.11136e-45
1.37977e-43
1.37905e-43
6.04861e-45
1.35227e-46
1.09778e-73
2.3456e-71
4.11299e-69
5.12018e-67
1.27841e-65
-1.59511e-62
-5.88102e-60
-1.36476e-57
-2.4144e-55
-3.37837e-53
-3.70538e-51
-3.05004e-49
-1.69966e-47
-4.62506e-46
7.66668e-45
7.4585e-43
7.58093e-43
2.05284e-44
1.64545e-46
8.63049e-73
2.88603e-70
7.87977e-68
1.81942e-65
3.56328e-63
5.79257e-61
7.33101e-59
5.75442e-57
-1.78587e-55
-1.60465e-52
-3.27932e-50
-4.31996e-48
-4.00757e-46
-2.54848e-44
-9.94981e-43
-1.77697e-41
-1.76612e-41
-8.82934e-43
-2.22551e-44
-8.80827e-72
-8.99118e-70
1.06861e-67
9.21329e-65
3.16569e-62
7.99278e-60
1.6312e-57
2.74816e-55
3.78873e-53
4.12352e-51
3.23771e-49
1.31947e-47
-5.84053e-46
-1.36259e-43
-9.48149e-42
-2.69286e-40
-2.70358e-40
-1.06226e-41
-2.08912e-43
-2.16322e-70
-5.28183e-68
-1.11409e-65
-1.96088e-63
-2.63411e-61
-1.79578e-59
3.11413e-57
1.52326e-54
3.58587e-52
6.09051e-50
7.96351e-48
8.00142e-46
5.94199e-44
2.99443e-42
8.49644e-41
7.65187e-40
7.41023e-40
5.97528e-41
1.97001e-42
-7.13111e-70
-3.53238e-67
-1.17416e-64
-3.14386e-62
-7.09752e-60
-1.3627e-57
-2.19807e-55
-2.86943e-53
-2.74589e-51
-1.23436e-49
1.5682e-47
4.43922e-45
5.63435e-43
4.45882e-41
2.12912e-39
4.77903e-38
4.77719e-38
2.11307e-39
4.76919e-41
2.44421e-68
4.41094e-66
5.64748e-64
8.48393e-63
-2.30846e-59
-9.00422e-57
-2.30451e-54
-4.6149e-52
-7.52178e-50
-9.9827e-48
-1.05404e-45
-8.40334e-44
-4.50475e-42
-1.08967e-40
3.16047e-39
2.35686e-37
2.38907e-37
6.54325e-39
5.47489e-41
3.13146e-67
8.72172e-65
2.11624e-62
4.4557e-60
7.99751e-58
1.16864e-55
1.21571e-53
3.40072e-52
-2.07806e-49
-6.05553e-47
-1.03625e-44
-1.27304e-42
-1.14499e-40
-7.21602e-39
-2.8429e-37
-5.23687e-36
-5.21285e-36
-2.59485e-37
-6.52763e-39
-5.83831e-67
1.46654e-64
1.0075e-61
3.55601e-59
9.62066e-57
2.15754e-54
4.09363e-52
6.55438e-50
8.68039e-48
9.08876e-46
6.74402e-44
2.21558e-42
-2.06501e-40
-3.62921e-38
-2.42931e-36
-6.8844e-35
-6.91009e-35
-2.70179e-36
-5.28086e-38
-4.51707e-65
-1.00405e-62
-1.92073e-60
-2.93605e-58
-2.81039e-56
1.55945e-54
1.5555e-51
4.5223e-49
9.22242e-47
1.46862e-44
1.86071e-42
1.84762e-40
1.37829e-38
7.11658e-37
2.15059e-35
2.42177e-34
2.37606e-34
1.67385e-35
5.22482e-37
-2.93182e-64
-9.82535e-62
-2.76814e-59
-6.72913e-57
-1.42228e-54
-2.59581e-52
-4.00223e-50
-4.96126e-48
-4.31815e-46
-1.06132e-44
4.49556e-42
9.96232e-40
1.20315e-37
9.42254e-36
4.53891e-34
1.0435e-32
1.04375e-32
4.57065e-34
1.02215e-35
3.10556e-63
4.41415e-61
1.89351e-59
-1.54593e-56
-7.20758e-54
-2.09791e-51
-4.79165e-49
-9.05296e-47
-1.42983e-44
-1.87044e-42
-1.97464e-40
-1.60101e-38
-9.0195e-37
-2.65698e-35
2.40649e-34
3.55014e-32
3.60354e-32
8.00802e-34
-3.1199e-37
5.81626e-62
1.46649e-59
3.34362e-57
6.67101e-55
1.13195e-52
1.5273e-50
1.30129e-48
-4.75187e-47
-4.71346e-44
-1.13558e-41
-1.84013e-39
-2.22236e-37
-2.00365e-35
-1.28545e-33
-5.24458e-32
-1.02581e-30
-1.02302e-30
-4.95796e-32
-1.22163e-33
1.01209e-61
5.85243e-59
2.20905e-56
6.49085e-54
1.60431e-51
3.41488e-49
6.27922e-47
9.8807e-45
1.30118e-42
1.37286e-40
1.0527e-38
4.09209e-37
-2.23295e-35
-4.85263e-33
-3.43449e-31
-1.01315e-29
-1.01718e-29
-3.8605e-31
-7.2466e-33
-5.44747e-60
-1.14936e-57
-2.02641e-55
-2.65306e-53
-1.18574e-51
6.60869e-49
2.77731e-46
7.00218e-44
1.35309e-41
2.10908e-39
2.66446e-37
2.6777e-35
2.05497e-33
1.11827e-31
3.73988e-30
5.43657e-29
5.38689e-29
3.22234e-30
9.24472e-32
-5.34783e-59
-1.40073e-56
-3.66446e-54
-8.49493e-52
-1.7388e-49
-3.10541e-47
-4.72196e-45
-5.81063e-43
-5.05466e-41
-1.27699e-39
5.22629e-37
1.17671e-34
1.44599e-32
1.15814e-30
5.74463e-29
1.37194e-27
1.37321e-27
5.88184e-29
1.28658e-30
5.75177e-59
1.84088e-56
-4.40517e-54
-2.96286e-51
-1.01144e-48
-2.64642e-46
-5.75033e-44
-1.06102e-41
-1.66405e-39
-2.19185e-37
-2.36602e-35
-2.0068e-33
-1.2404e-31
-4.74916e-30
-5.94623e-29
1.96868e-27
2.02081e-27
-4.86829e-30
-2.30639e-30
4.85299e-57
1.44639e-54
3.19609e-52
6.18883e-50
1.01912e-47
1.3179e-45
9.87499e-44
-8.50138e-42
-5.06424e-39
-1.16335e-36
-1.86975e-34
-2.27512e-32
-2.08966e-30
-1.38093e-28
-5.88392e-27
-1.22583e-25
-1.22436e-25
-5.73358e-27
-1.37292e-28
5.55693e-56
7.67315e-54
2.4269e-51
6.57503e-49
1.55384e-46
3.22703e-44
5.87207e-42
9.25807e-40
1.23885e-37
1.35707e-35
1.13408e-33
5.97662e-32
1.22003e-31
-2.97829e-28
-2.53804e-26
-8.15259e-25
-8.18933e-25
-2.92481e-26
-5.00113e-28
7.12891e-55
-7.59274e-53
-1.29569e-50
-1.41652e-48
3.90274e-47
7.52303e-44
2.55654e-41
6.06976e-39
1.14808e-36
1.78423e-34
2.27641e-32
2.33825e-30
1.8603e-28
1.07126e-26
3.93186e-25
6.80955e-24
6.78044e-24
3.62911e-25
9.69816e-27
4.3548e-54
-1.08502e-51
-2.81371e-49
-6.36095e-47
-1.28355e-44
-2.2829e-42
-3.49719e-40
-4.41643e-38
-4.14043e-36
-1.79953e-34
2.55041e-32
7.2157e-30
9.50679e-28
7.97088e-26
4.12084e-24
1.02795e-22
1.02944e-22
4.2792e-24
9.06597e-26
-2.12189e-52
-7.77921e-52
-6.14425e-49
-2.54781e-46
-7.64773e-44
-1.89191e-41
-4.00368e-39
-7.31847e-37
-1.15167e-34
-1.54053e-32
-1.71301e-30
-1.52818e-28
-1.03244e-26
-4.76438e-25
-1.19521e-23
-6.33743e-23
-6.05791e-23
-9.02825e-24
-3.53173e-25
-6.21469e-51
6.57735e-50
1.80456e-47
3.44987e-45
5.61841e-43
7.20334e-41
5.31848e-39
-4.89447e-37
-2.8431e-34
-6.56682e-32
-1.06864e-29
-1.32407e-27
-1.24593e-25
-8.49769e-24
-3.77287e-22
-8.29734e-21
-8.29559e-21
-3.75638e-22
-8.7321e-24
-3.91756e-50
3.51195e-49
1.45873e-46
3.77719e-44
8.68586e-42
1.78029e-39
3.2342e-37
5.14923e-35
7.0557e-33
8.08585e-31
7.38245e-29
4.86382e-27
1.67923e-25
-4.71379e-24
-8.60614e-22
-3.30652e-20
-3.32436e-20
-1.04801e-21
-1.39331e-23
1.33321e-48
-6.63947e-50
-4.61178e-46
-3.84138e-44
6.69762e-42
4.25999e-39
1.29483e-36
2.96267e-34
5.53751e-32
8.62089e-30
1.11315e-27
1.16849e-25
9.60691e-24
5.80237e-22
2.28471e-20
4.41435e-19
4.40588e-19
2.19688e-20
5.57314e-22
3.23423e-47
3.5001e-47
-1.20696e-44
-2.73092e-42
-5.47386e-40
-9.76445e-38
-1.51921e-35
-1.99016e-33
-2.03961e-31
-1.29592e-29
2.9606e-28
2.16224e-25
3.26637e-23
2.93016e-21
1.59201e-19
4.15354e-18
4.16085e-18
1.66921e-19
3.3955e-21
9.1216e-47
2.78859e-46
-3.32932e-44
-1.16118e-41
-3.20664e-39
-7.6086e-37
-1.57737e-34
-2.86359e-32
-4.52431e-30
-6.13975e-28
-7.00866e-26
-6.52143e-24
-4.71259e-22
-2.44221e-20
-7.81711e-19
-1.07719e-17
-1.0695e-17
-7.01299e-19
-2.12962e-20
-7.58194e-45
-1.48488e-44
5.29399e-43
1.07307e-40
1.73577e-38
2.21908e-36
1.64928e-34
-1.46356e-32
-8.70504e-30
-2.03343e-27
-3.35321e-25
-4.22492e-23
-4.06039e-21
-2.84354e-19
-1.30495e-17
-2.99083e-16
-2.99182e-16
-1.31579e-17
-2.97807e-19
-1.23993e-43
-2.86627e-43
4.10344e-42
1.19792e-39
2.69583e-37
5.46239e-35
9.90769e-33
1.59078e-30
2.22455e-28
2.64617e-26
2.58284e-24
1.9467e-22
9.98823e-21
2.22285e-19
-8.53928e-18
-5.89397e-16
-5.937e-16
-1.30542e-17
1.16209e-20
3.46565e-43
5.1945e-43
-6.51421e-42
-1.02692e-40
3.28705e-37
1.33954e-34
3.66478e-32
8.03322e-30
1.47423e-27
2.28477e-25
2.96622e-23
3.15806e-21
2.65723e-19
1.65989e-17
6.85385e-16
1.41607e-14
1.41498e-14
6.74104e-16
1.64954e-17
3.39608e-41
7.47978e-41
-1.17944e-40
-6.24623e-38
-1.24896e-35
-2.2286e-33
-3.50431e-31
-4.71568e-29
-5.14093e-27
-3.95259e-25
-8.94376e-24
3.01748e-21
5.69051e-19
5.53736e-17
3.16496e-15
8.60182e-14
8.61749e-14
3.33008e-15
6.46901e-17
3.06641e-40
6.87862e-40
5.24962e-40
-2.82047e-37
-7.30684e-35
-1.66023e-32
-3.35609e-30
-6.01568e-28
-9.47873e-26
-1.29468e-23
-1.50193e-21
-1.43673e-19
-1.08433e-17
-6.01624e-16
-2.15915e-14
-3.71862e-13
-3.70848e-13
-2.05324e-14
-5.65306e-16
-4.14831e-39
-8.75652e-39
-1.01771e-38
1.58795e-36
2.54579e-34
3.06647e-32
1.76905e-30
-3.71585e-28
-1.58895e-25
-3.51516e-23
-5.69993e-21
-7.16485e-19
-6.92924e-17
-4.91634e-15
-2.30029e-13
-5.40965e-12
-5.4125e-12
-2.33053e-13
-5.17466e-15
-1.0719e-37
-2.23609e-37
-3.78985e-37
1.87961e-35
4.31605e-33
8.60533e-31
1.54822e-28
2.48622e-26
3.50953e-24
4.26414e-22
4.32759e-20
3.5041e-18
2.09276e-16
7.79348e-15
9.11053e-14
-3.49183e-12
-3.53942e-12
4.11818e-14
5.56903e-15
-2.21594e-37
-4.13594e-37
-6.52416e-37
1.78012e-35
8.0101e-33
2.37166e-30
5.71792e-28
1.17363e-25
2.07486e-23
3.14978e-21
4.05196e-19
4.31417e-17
3.66042e-15
2.32521e-13
9.8557e-12
2.11384e-10
2.11329e-10
9.79944e-12
2.34733e-13
1.84094e-35
3.70077e-35
7.11376e-35
-5.37894e-34
-1.33247e-31
-2.35089e-29
-3.66517e-27
-4.91716e-25
-5.38892e-23
-4.25247e-21
-1.23009e-19
2.70561e-17
5.48665e-15
5.47747e-13
3.19015e-11
8.82931e-10
8.84313e-10
3.33553e-11
6.2878e-13
2.04755e-34
3.86883e-34
6.99678e-34
-2.26605e-33
-8.39414e-31
-1.8168e-28
-3.54454e-26
-6.20286e-24
-9.63111e-22
-1.30701e-19
-1.51853e-17
-1.46732e-15
-1.13006e-13
-6.48517e-12
-2.45649e-10
-4.62004e-09
-4.61409e-09
-2.39424e-10
-6.31171e-12
-1.44558e-33
-2.95902e-33
-6.07746e-33
-3.79581e-33
1.0856e-30
7.04114e-29
-1.53623e-26
-7.39368e-24
-1.85248e-21
-3.47471e-19
-5.20606e-17
-6.26503e-15
-5.91293e-13
-4.14523e-11
-1.93414e-09
-4.57085e-08
-4.57291e-08
-1.95598e-09
-4.32845e-11
-4.55312e-32
-8.38622e-32
-1.5215e-31
-1.25492e-31
3.04552e-29
6.00025e-27
1.05778e-24
1.67389e-22
2.34192e-20
2.83827e-18
2.89619e-16
2.3859e-14
1.48228e-12
6.097e-11
1.15928e-09
-7.41051e-09
-7.62493e-09
9.34042e-10
5.11697e-11
-1.27749e-31
-1.83743e-31
-2.21758e-31
1.38293e-31
8.85329e-29
2.10719e-26
4.46709e-24
8.42627e-22
1.40501e-19
2.04646e-17
2.55757e-15
2.67147e-13
2.24226e-11
1.41979e-09
6.04387e-08
1.31206e-06
1.31193e-06
6.03013e-08
1.43792e-09
5.82907e-30
1.06026e-29
1.91911e-29
3.13611e-29
-4.34648e-28
-8.18729e-26
-1.18445e-23
-1.41411e-21
-1.22396e-19
-3.50135e-18
1.17785e-15
2.80819e-13
3.63754e-11
3.1126e-09
1.67932e-07
4.45353e-06
4.45775e-06
1.72371e-07
3.38176e-09
5.96194e-29
9.75973e-29
1.55982e-28
2.23413e-28
-3.69482e-27
-8.26823e-25
-1.54166e-22
-2.59953e-20
-3.91782e-18
-5.19405e-16
-5.93034e-14
-5.66375e-12
-4.33714e-10
-2.49157e-08
-9.52682e-07
-1.82941e-05
-1.828e-05
-9.37783e-07
-2.45935e-08
-3.74291e-28
-7.15466e-28
-1.35943e-27
-2.5118e-27
-8.39436e-27
-1.18657e-24
-2.8922e-22
-6.06015e-20
-1.09816e-17
-1.71664e-15
-2.28586e-13
-2.53422e-11
-2.25426e-09
-1.51329e-07
-6.84249e-06
-0.000158231
-0.000158266
-6.87925e-06
-1.55554e-07
-1.00318e-26
-1.63976e-26
-2.65052e-26
-4.15503e-26
4.19637e-27
1.26345e-23
2.13619e-21
3.21208e-19
4.24889e-17
4.81933e-15
4.50952e-13
3.25864e-11
1.57485e-09
2.72468e-08
-1.98846e-06
-0.000114689
-0.000114997
-2.31292e-06
1.15214e-08
-1.80758e-26
-1.74706e-26
-6.66524e-27
2.56663e-26
4.14131e-25
6.73108e-23
1.28395e-20
2.23075e-18
3.47753e-16
4.79065e-14
5.71559e-12
5.74391e-10
4.66971e-08
2.88132e-06
0.000120195
0.00257124
0.00257093
0.000119861
2.90824e-06
1.03356e-24
1.6869e-24
2.73503e-24
4.34259e-24
6.76395e-24
3.55865e-23
9.18301e-21
2.30818e-18
4.67882e-16
7.91546e-14
1.12075e-11
1.30786e-09
1.21724e-07
8.52001e-06
0.000400931
0.00963887
0.00964163
0.000403838
8.79468e-06
7.95972e-24
1.13371e-23
1.57086e-23
2.09739e-23
2.22536e-23
-8.55714e-22
-1.55411e-19
-2.46706e-17
-3.50353e-15
-4.37519e-13
-4.69512e-11
-4.19439e-09
-2.9783e-07
-1.56223e-05
-0.000530467
-0.00857958
-0.00856998
-0.0005203
-1.53235e-05
-6.05615e-23
-1.02836e-22
-1.72775e-22
-2.82362e-22
-4.65939e-22
-4.05968e-21
-6.41528e-19
-1.1126e-16
-1.74028e-14
-2.41399e-12
-2.91031e-10
-2.96638e-08
-2.4556e-06
-0.000154941
-0.00664075
-0.146691
-0.14669
-0.00664022
-0.000157145
-1.09079e-21
-1.58544e-21
-2.27787e-21
-3.2062e-21
-4.42603e-21
-7.74657e-21
-4.68476e-19
-1.00206e-16
-1.87217e-14
-3.01016e-12
-4.12131e-10
-4.70199e-08
-4.3114e-06
-0.000299013
-0.0140055
-0.336409
-0.336467
-0.0140669
-0.000306633
-2.0017e-22
8.80801e-22
3.11647e-21
7.10595e-21
1.39105e-20
4.87923e-20
4.28695e-18
6.74395e-16
9.62172e-14
1.21315e-11
1.32251e-09
1.20996e-07
8.89915e-06
0.000491839
0.0180991
0.333989
0.333866
0.0179679
0.00049132
9.18423e-20
1.34073e-19
1.94336e-19
2.76733e-19
3.87846e-19
6.27918e-19
1.81199e-17
2.9297e-15
4.45576e-13
6.03238e-11
7.12165e-09
7.13096e-07
5.8173e-05
0.0036285
0.15422
3.38916
3.38909
0.154138
0.00367503
4.61876e-19
5.69408e-19
6.74813e-19
7.58886e-19
7.9332e-19
9.11146e-19
3.41362e-17
5.76897e-15
8.95226e-13
1.23725e-10
1.49241e-08
1.52827e-06
0.000127629
0.00815811
0.355715
8.02646
8.02649
0.35574
0.00827681
-4.7263e-18
-7.07043e-18
-1.04844e-17
-1.52227e-17
-2.16805e-17
-3.01292e-17
-1.63712e-18
6.8732e-15
1.08219e-12
1.50568e-10
1.82868e-08
1.88595e-06
0.000158662
0.0102191
0.449095
10.2151
10.2151
0.449112
0.0103693
-5.39679e-17
-7.0148e-17
-9.01198e-17
-1.1368e-16
-1.40718e-16
-1.70574e-16
-1.64955e-16
6.30064e-15
1.01862e-12
1.4148e-10
1.71492e-08
1.76503e-06
0.000148176
0.00952298
0.41756
9.47601
9.47603
0.417571
0.00966243
7.31752e-17
1.44705e-16
2.57445e-16
4.2251e-16
6.57127e-16
9.82851e-16
1.46333e-15
8.60452e-15
1.03017e-12
1.42705e-10
1.73024e-08
1.78134e-06
0.000149594
0.00961738
0.421848
9.57678
9.5768
0.421859
0.00975826
3.62703e-15
4.76783e-15
6.22986e-15
8.02958e-15
1.02131e-14
1.28254e-14
1.59437e-14
2.60687e-14
1.05025e-12
1.42627e-10
1.72896e-08
1.77998e-06
0.000149475
0.00960942
0.421485
9.56823
9.56824
0.421496
0.00975018
1.08789e-14
1.15358e-14
1.14532e-14
1.0266e-14
7.47405e-15
2.44025e-15
-5.59543e-15
-1.11465e-14
9.91668e-13
1.42546e-10
1.72902e-08
1.78006e-06
0.000149482
0.0096099
0.421507
9.56875
9.56876
0.421518
0.00975067
-1.49053e-13
-1.99417e-13
-2.65288e-13
-3.47861e-13
-4.50109e-13
-5.75307e-13
-7.26936e-13
-9.02226e-13
-9.7911e-14
1.41227e-10
1.72886e-08
1.78005e-06
0.000149482
0.00960988
0.421506
9.56872
9.56874
0.421517
0.00975065
-1.12552e-12
-1.33081e-12
-1.55778e-12
-1.79681e-12
-2.04021e-12
-2.2772e-12
-2.49311e-12
-2.66224e-12
-1.75285e-12
1.3981e-10
1.72876e-08
1.78005e-06
0.000149482
0.00960988
0.421506
9.56872
9.56874
0.421517
0.00975065
2.48782e-12
3.7769e-12
5.54013e-12
7.82775e-12
1.07477e-11
1.4423e-11
1.89915e-11
2.46119e-11
3.24577e-11
1.82253e-10
1.73397e-08
1.78012e-06
0.000149482
0.00960988
0.421506
9.56872
9.56874
0.421517
0.00975065
5.71611e-11
6.90579e-11
8.31234e-11
9.91377e-11
1.17167e-10
1.37236e-10
1.59306e-10
1.83266e-10
2.09915e-10
3.78484e-10
1.75541e-08
1.78035e-06
0.000149482
0.00960988
0.421506
9.56872
9.56874
0.421517
0.00975064
1.14741e-10
1.10569e-10
9.87231e-11
7.74187e-11
4.40918e-11
-4.23937e-12
-7.098e-11
-1.59957e-10
-2.74433e-10
-2.79579e-10
1.66846e-08
1.77921e-06
0.00014948
0.00960989
0.421507
9.56874
9.56876
0.421518
0.00975067
-1.65752e-09
-2.04562e-09
-2.51632e-09
-3.06553e-09
-3.70028e-09
-4.42756e-09
-5.25385e-09
-6.18516e-09
-7.22602e-09
-8.24193e-09
7.62665e-09
1.76889e-06
0.000149465
0.00960988
0.421513
9.56888
9.5689
0.421524
0.00975079
-9.8423e-09
-1.09649e-08
-1.21238e-08
-1.32603e-08
-1.43342e-08
-1.52992e-08
-1.61046e-08
-1.66943e-08
-1.70061e-08
-1.68302e-08
7.82838e-10
1.76456e-06
0.000149466
0.00960977
0.421508
9.56884
9.56886
0.42152
0.00975065
1.65653e-08
2.34469e-08
3.2117e-08
4.25475e-08
5.4942e-08
6.95069e-08
8.64673e-08
1.06083e-07
1.28638e-07
1.54601e-07
2.01227e-07
1.99946e-06
0.000149802
0.00960969
0.421389
9.56616
9.56617
0.421398
0.00974803
3.39824e-07
3.87372e-07
4.39858e-07
4.95642e-07
5.54639e-07
6.17028e-07
6.83117e-07
7.53303e-07
8.27548e-07
9.05474e-07
1.00309e-06
2.85359e-06
0.000150865
0.0096112
0.421115
9.55909
9.55911
0.421114
0.00974258
7.23558e-07
7.08496e-07
6.73756e-07
6.15381e-07
5.3351e-07
4.25792e-07
2.87621e-07
1.14489e-07
-1.04378e-07
-3.78492e-07
-6.99786e-07
6.41847e-07
0.000147611
0.00961397
0.422024
9.57729
9.5773
0.422033
0.00976126
-5.60173e-06
-6.50545e-06
-7.50742e-06
-8.63267e-06
-9.93105e-06
-1.14459e-05
-1.32168e-05
-1.52221e-05
-1.74334e-05
-1.98225e-05
-2.23472e-05
-2.33626e-05
0.000117872
0.00959529
0.427971
9.71524
9.71526
0.428122
0.00987701
-3.2772e-05
-3.46263e-05
-3.63151e-05
-3.87934e-05
-4.18799e-05
-4.54001e-05
-4.93064e-05
-5.24028e-05
-5.46958e-05
-5.61923e-05
-5.68864e-05
-5.52738e-05
8.49351e-05
0.009544
0.435143
9.90477
9.90487
0.435556
0.0100466
-4.44658e-06
1.65493e-06
1.33884e-05
3.05761e-05
5.31363e-05
8.09749e-05
0.000109089
0.000137417
0.000165936
0.000194627
0.000223495
0.000254611
0.000440864
0.00977962
0.404107
9.23545
9.23559
0.403953
0.0096681
0.00043437
0.00045777
0.000678228
0.000899282
0.00112086
0.00134274
0.00136869
0.00139422
0.00141933
0.00144402
0.00146834
0.00149672
0.00175773
0.0108375
0.272243
6.18447
6.18436
0.268856
0.00741138
0.0013459
0.00135496
0.00155154
0.00174753
0.00194289
0.00213745
0.00214494
0.00215206
0.00215882
0.00216522
0.0021714
0.0021852
0.00255163
0.0114793
0.0760067
1.55232
1.55181
0.0676764
0.00302399
0.00154244
0.00153908
0.0017133
0.00188724
0.00206087
0.00223403
0.00223054
0.002227
0.00222341
0.00221978
0.00221627
0.00222232
0.00263966
0.0116096
-0.0151336
-0.63414
-0.634776
-0.0257442
0.000789767
0.00139831
0.00139511
0.00155933
0.00172333
0.00188708
0.00205044
0.00204729
0.00204415
0.00204102
0.00203789
0.00203491
0.00204103
0.0024403
0.0114296
0.0155214
0.104111
0.103536
0.00569027
0.00142075
0.00132316
0.0013202
0.0014745
0.00162858
0.00178241
0.00193585
0.00193286
0.00192987
0.00192688
0.00192389
0.00192105
0.00192736
0.00232956
0.0113231
0.0112337
0.00335125
0.00277944
0.0013248
0.00124384
0.0012418
0.00123886
0.00138302
0.00152696
0.00167064
0.00181394
0.0018109
0.00180786
0.00180483
0.00180179
0.00179889
0.00180516
0.00220729
0.0112048
0.01148
0.0117998
0.0112385
0.00160595
0.00117098
0.00116075
0.00115791
0.00129202
0.00142591
0.00155956
0.00169286
0.00168992
0.00168701
0.00168412
0.00168126
0.00167857
0.00168511
0.00208886
0.0111136
0.0113784
0.0112096
0.0106572
0.00150637
0.00109244
0.00108298
0.00108063
0.00120511
0.00132941
0.00145356
0.00157744
0.0015753
0.00157327
0.00157135
0.00156951
0.00156789
0.00157566
0.00198658
0.0111473
0.0114285
0.0112928
0.0107439
0.00144435
0.00102438
0.00101519
0.00101334
0.00112803
0.00124286
0.00135774
0.00147247
0.00147133
0.00146978
0.00146783
0.0014655
0.00146292
0.00146942
0.00188548
0.0112204
0.0115143
0.0113834
0.0108329
0.00136305
0.000933089
0.00091964
0.000913928
0.00101193
0.00110702
0.00119922
0.00128849
0.00127164
0.0012547
0.00123768
0.00122059
0.00120358
0.00119524
0.00156681
0.0102614
0.0105286
0.0104034
0.00989025
0.00105479
0.000647295
0.000624811
0.00061089
0.000597414
0.00058353
0.000569257
0.000554625
0.000539562
0.000524722
0.000510107
0.00049572
0.000481648
0.000473548
0.000718594
0.00656141
0.00674167
0.00666196
0.00632515
0.000392334
0.000124007
0.000111214
0.000104965
9.88292e-05
9.28887e-05
8.71427e-05
8.159e-05
7.62294e-05
7.10607e-05
6.60796e-05
6.12823e-05
5.66858e-05
5.36889e-05
0.000114482
0.00160373
0.0016496
0.00163077
0.00154789
3.76825e-05
-2.80095e-05
-2.94926e-05
-2.93614e-05
-2.92199e-05
-2.9048e-05
-2.88467e-05
-2.86176e-05
-2.83623e-05
-2.80824e-05
-2.77795e-05
-2.74552e-05
-2.71195e-05
-2.73383e-05
-5.31192e-05
-0.000652958
-0.000672153
-0.00066498
-0.000631726
-2.44712e-05
2.06471e-06
2.77293e-06
2.85698e-06
2.94326e-06
3.02691e-06
3.10768e-06
3.18549e-06
3.26025e-06
3.33187e-06
3.40029e-06
3.46548e-06
3.52856e-06
3.66774e-06
7.35964e-06
9.10985e-05
9.38401e-05
9.28906e-05
8.82897e-05
3.62306e-06
-6.28094e-08
-1.58067e-07
-1.68225e-07
-1.79025e-07
-1.90036e-07
-2.0123e-07
-2.12588e-07
-2.24089e-07
-2.35715e-07
-2.47445e-07
-2.59262e-07
-2.71246e-07
-2.89951e-07
-6.08469e-07
-7.69937e-06
-7.93583e-06
-7.85944e-06
-7.47338e-06
-3.11716e-07
-1.36458e-09
6.35266e-09
6.98586e-09
7.68108e-09
8.41643e-09
9.19166e-09
1.00068e-08
1.08618e-08
1.17565e-08
1.26907e-08
1.3664e-08
1.4682e-08
1.61361e-08
3.55683e-08
4.61859e-07
4.76298e-07
4.71932e-07
4.48932e-07
1.88037e-08
2.5326e-10
-1.93418e-10
-2.20011e-10
-2.50171e-10
-2.83201e-10
-3.19224e-10
-3.58378e-10
-4.00798e-10
-4.46615e-10
-4.95958e-10
-5.48952e-10
-6.05987e-10
-6.85077e-10
-1.59036e-09
-2.1217e-08
-2.18909e-08
-2.16998e-08
-2.06503e-08
-8.6439e-10
-1.52886e-11
4.65084e-12
5.48044e-12
6.45353e-12
7.55705e-12
8.80218e-12
1.0201e-11
1.17659e-11
1.35098e-11
1.54462e-11
1.75886e-11
1.9961e-11
2.32321e-11
5.69251e-11
7.80518e-10
8.05668e-10
7.98973e-10
7.60624e-10
3.17445e-11
6.26099e-13
-9.0687e-14
-1.10911e-13
-1.35484e-13
-1.6437e-13
-1.9812e-13
-2.37337e-13
-2.82675e-13
-3.34835e-13
-3.9457e-13
-4.62687e-13
-5.40333e-13
-6.48144e-13
-1.67999e-12
-2.36756e-11
-2.44483e-11
-2.42551e-11
-2.30998e-11
-9.59984e-13
-1.98713e-14
1.4593e-15
1.85646e-15
2.3573e-15
2.96857e-15
3.70912e-15
4.60034e-15
5.66622e-15
6.93349e-15
8.43185e-15
1.01942e-14
1.22642e-14
1.51817e-14
4.17246e-14
6.0434e-13
6.2429e-13
6.19609e-13
5.90325e-13
2.44082e-14
5.15925e-16
-1.96016e-17
-2.6007e-17
-3.441e-17
-4.50786e-17
-5.85049e-17
-7.52668e-17
-9.60368e-17
-1.21592e-16
-1.52826e-16
-1.90764e-16
-2.36729e-16
-3.02873e-16
-8.84841e-16
-1.31707e-14
-1.36099e-14
-1.35133e-14
-1.28796e-14
-5.29484e-16
-1.1274e-17
2.15555e-19
2.98898e-19
4.12808e-19
5.63435e-19
7.6054e-19
1.01601e-18
1.3442e-18
1.76226e-18
2.29065e-18
2.95356e-18
3.78227e-18
5.00397e-18
1.55461e-17
2.37586e-16
2.45573e-16
2.43921e-16
2.32573e-16
9.50062e-18
2.02288e-19
)
;

boundaryField
{
    top
    {
        type            zeroGradient;
    }
    left
    {
        type            fixedValue;
        value           uniform 0;
    }
    bottom
    {
        type            zeroGradient;
    }
    right
    {
        type            zeroGradient;
    }
    frontAndBack
    {
        type            empty;
    }
}


// ************************************************************************* //
