/*--------------------------------*- C++ -*----------------------------------*\
| =========                 |                                                 |
| \\      /  F ield         | OpenFOAM: The Open Source CFD Toolbox           |
|  \\    /   O peration     | Version:  v1806                                 |
|   \\  /    A nd           | Web:      www.OpenFOAM.com                      |
|    \\/     M anipulation  |                                                 |
\*---------------------------------------------------------------------------*/
FoamFile
{
    version     2.0;
    format      ascii;
    class       volScalarField;
    location    "0.02";
    object      T;
}
// * * * * * * * * * * * * * * * * * * * * * * * * * * * * * * * * * * * * * //

dimensions      [0 0 0 1 0 0 0];


internalField   nonuniform List<scalar> 
1881
(
1.19629e-51
4.36005e-52
-7.7806e-50
-6.51071e-48
-4.74151e-46
-3.07018e-44
-1.76648e-42
-8.98304e-41
-3.99977e-39
-1.53808e-37
-5.01066e-36
-1.34587e-34
-2.86479e-33
-4.5421e-32
-4.81009e-31
-2.67386e-30
-2.66879e-30
-4.75328e-31
-4.74626e-32
-1.71838e-50
-1.23576e-50
6.14834e-49
3.85328e-47
2.06757e-45
9.71804e-44
3.86967e-42
1.21598e-40
2.40911e-39
-1.52931e-38
-3.90562e-36
-1.96778e-34
-6.22026e-33
-1.3322e-31
-1.81556e-30
-1.25544e-29
-1.26008e-29
-1.87135e-30
-1.50168e-31
-1.00159e-49
-6.99009e-50
3.56815e-48
2.68412e-46
1.77017e-44
1.05512e-42
5.64737e-41
2.68891e-39
1.12499e-37
4.06966e-36
1.24585e-34
3.13345e-33
6.20434e-32
9.05247e-31
8.67706e-30
4.27425e-29
4.25105e-29
8.40858e-30
9.22319e-31
4.01916e-49
4.412e-49
-4.6808e-48
-1.68333e-46
2.09084e-45
8.51238e-43
8.26656e-41
5.68114e-39
3.12332e-37
1.41573e-35
5.29495e-34
1.60788e-32
3.83663e-31
6.7943e-30
8.03432e-29
4.98054e-28
4.98568e-28
8.09962e-29
7.32406e-30
5.99387e-48
5.55809e-48
-1.13369e-46
-8.0691e-45
-4.86981e-43
-2.65497e-41
-1.29563e-39
-5.5841e-38
-2.08817e-36
-6.61093e-35
-1.7089e-33
-3.39819e-32
-4.61021e-31
-2.85783e-30
2.17053e-29
4.36518e-28
4.4429e-28
3.0884e-29
-1.66141e-30
4.77606e-48
1.06984e-49
-2.72132e-46
-2.30538e-44
-1.71855e-42
-1.13477e-40
-6.64398e-39
-3.43493e-37
-1.55471e-35
-6.08027e-34
-2.01657e-32
-5.52305e-31
-1.20136e-29
-1.9521e-28
-2.12643e-27
-1.22004e-26
-1.21892e-26
-2.11441e-27
-2.05755e-28
-2.41609e-46
-2.65176e-46
1.96139e-45
1.37252e-43
7.20218e-42
3.27098e-40
1.23154e-38
3.43213e-37
3.99147e-36
-2.51878e-34
-2.10216e-32
-9.1134e-31
-2.71038e-29
-5.61781e-28
-7.50549e-27
-5.12621e-26
-5.14241e-26
-7.70049e-27
-6.26306e-28
-1.09943e-45
-1.03909e-45
1.37281e-44
1.07009e-42
6.93899e-41
4.07546e-39
2.15433e-37
1.01493e-35
4.20791e-34
1.5104e-32
4.59302e-31
1.14861e-29
2.26324e-28
3.28863e-27
3.14147e-26
1.54328e-25
1.53545e-25
3.0508e-26
3.36099e-27
6.05798e-45
7.72633e-45
1.92391e-45
1.03292e-43
4.88211e-41
5.26972e-39
4.03167e-37
2.49306e-35
1.29037e-33
5.6243e-32
2.04668e-30
6.0916e-29
1.43181e-27
2.50683e-26
2.93917e-25
1.81115e-24
1.81265e-24
2.95828e-25
2.69267e-26
6.75005e-44
7.39467e-44
-3.13623e-43
-2.64717e-41
-1.57728e-39
-8.46664e-38
-4.06551e-36
-1.72155e-34
-6.30607e-33
-1.94431e-31
-4.8372e-30
-9.00088e-29
-1.04006e-27
-1.6436e-27
1.56019e-25
1.92345e-24
1.9466e-24
1.83401e-25
2.29328e-27
1.31953e-45
-4.39699e-44
-1.24349e-42
-9.13806e-41
-6.45878e-39
-4.10515e-37
-2.33396e-35
-1.17876e-33
-5.23457e-32
-2.01509e-30
-6.59522e-29
-1.78621e-27
-3.84864e-26
-6.20378e-25
-6.7129e-24
-3.83141e-23
-3.82774e-23
-6.67291e-24
-6.5334e-25
-2.68144e-42
-3.17076e-42
1.874e-42
3.28354e-40
1.6375e-38
6.72852e-37
2.06348e-35
2.62805e-34
-1.97205e-32
-1.89052e-30
-9.758e-29
-3.60171e-27
-9.86494e-26
-1.94447e-24
-2.51201e-23
-1.67673e-22
-1.68084e-22
-2.56164e-23
-2.13865e-24
-9.74645e-42
-9.95385e-42
3.56302e-41
3.23223e-39
2.05474e-37
1.18344e-35
6.14556e-34
2.84798e-32
1.16251e-30
4.10992e-29
1.23088e-27
3.02938e-26
5.86494e-25
8.3474e-24
7.76695e-23
3.68359e-22
3.663e-22
7.52767e-23
8.51915e-24
6.80368e-41
8.67624e-41
1.33701e-40
3.23915e-39
3.01619e-37
2.3392e-35
1.53383e-33
8.65666e-32
4.21467e-30
1.75762e-28
6.18481e-27
1.79278e-25
4.12491e-24
7.09671e-23
8.20161e-22
4.99628e-21
4.99887e-21
8.23587e-22
7.58839e-23
6.11804e-40
6.93311e-40
-1.56166e-40
-6.13467e-38
-3.60223e-36
-1.88077e-34
-8.74632e-33
-3.56168e-31
-1.23907e-29
-3.54194e-28
-7.73528e-27
-1.06293e-25
-3.1295e-26
3.74647e-23
8.42359e-22
7.41169e-21
7.46268e-21
9.02876e-22
4.85449e-23
-3.46854e-40
-7.36483e-40
-4.91219e-39
-2.73512e-37
-1.83314e-35
-1.12114e-33
-6.17454e-32
-3.03526e-30
-1.31662e-28
-4.96435e-27
-1.59475e-25
-4.246e-24
-9.00429e-23
-1.42972e-21
-1.52478e-20
-8.5844e-20
-8.57439e-20
-1.51363e-20
-1.5024e-21
-2.35438e-38
-2.79516e-38
-2.529e-38
3.98023e-37
1.70415e-35
3.72711e-34
-1.29265e-32
-2.16407e-30
-1.57174e-28
-8.26356e-27
-3.40817e-25
-1.11374e-23
-2.82271e-22
-5.27058e-21
-6.54311e-20
-4.24109e-19
-4.24826e-19
-6.63035e-20
-5.72215e-21
-7.061e-38
-7.28515e-38
2.91205e-38
6.9817e-36
4.35214e-34
2.44455e-32
1.23874e-30
5.60188e-29
2.22982e-27
7.67501e-26
2.23129e-24
5.30453e-23
9.83828e-22
1.3223e-20
1.13132e-19
4.69136e-19
4.65069e-19
1.08381e-19
1.33634e-20
5.80538e-37
7.24755e-37
1.08474e-36
1.51108e-35
1.05803e-33
7.08775e-32
4.21798e-30
2.21922e-28
1.02394e-26
4.09083e-25
1.38957e-23
3.90971e-22
8.76803e-21
1.4751e-19
1.67152e-18
1.00128e-17
1.00143e-17
1.67394e-18
1.56964e-19
4.46705e-36
5.05025e-36
4.25891e-36
-8.73541e-35
-5.16871e-33
-2.54614e-31
-1.09571e-29
-3.99269e-28
-1.15741e-26
-2.25051e-25
-4.33024e-25
1.74255e-22
7.84285e-21
1.95535e-19
2.91669e-18
2.14558e-17
2.15347e-17
3.01095e-18
2.20897e-19
-4.16189e-36
-6.89687e-36
-1.89269e-35
-5.84394e-34
-3.67853e-32
-2.16711e-30
-1.15482e-28
-5.50943e-27
-2.32454e-25
-8.53852e-24
-2.67472e-22
-6.94713e-21
-1.43693e-19
-2.22351e-18
-2.30764e-17
-1.26285e-16
-1.2608e-16
-2.28437e-17
-2.3278e-18
-1.63102e-34
-1.91337e-34
-2.25506e-34
-3.3518e-34
-2.07826e-32
-2.11933e-30
-1.60073e-28
-9.86576e-27
-5.11459e-25
-2.24042e-23
-8.21632e-22
-2.47067e-20
-5.88145e-19
-1.04544e-17
-1.24742e-16
-7.83524e-16
-7.84294e-16
-1.25696e-16
-1.12306e-17
-4.25582e-34
-4.35e-34
-2.77362e-34
9.67878e-33
6.00651e-31
3.25659e-29
1.5888e-27
6.89261e-26
2.61696e-24
8.51479e-23
2.3062e-21
4.98179e-20
8.00712e-19
8.3768e-18
3.89465e-17
-8.41337e-17
-8.98016e-17
3.22747e-17
7.96579e-18
3.76946e-33
4.61298e-33
6.20422e-33
4.02131e-32
2.26384e-30
1.39559e-28
7.78536e-27
3.88269e-25
1.71166e-23
6.57234e-22
2.15513e-20
5.87339e-19
1.27914e-17
2.09398e-16
2.31271e-15
1.3533e-14
1.35292e-14
2.30903e-15
2.21736e-16
2.62362e-32
2.93396e-32
3.17837e-32
-3.11968e-32
-3.14555e-30
-1.19891e-28
-2.89453e-27
2.68239e-26
8.16683e-24
5.67211e-22
2.66256e-20
9.40814e-19
2.51834e-17
4.90447e-16
6.30332e-15
4.20579e-14
4.21364e-14
6.3981e-15
5.33469e-16
-2.71756e-32
-4.19921e-32
-7.52026e-32
-8.5392e-31
-4.74639e-29
-2.68641e-27
-1.38005e-25
-6.35193e-24
-2.5855e-22
-9.15459e-21
-2.75934e-19
-6.87534e-18
-1.35789e-16
-1.99244e-15
-1.94116e-14
-9.85521e-14
-9.82699e-14
-1.90853e-14
-2.06997e-15
-8.85043e-31
-1.02431e-30
-1.21836e-30
-2.69446e-30
-9.78478e-29
-6.40608e-27
-3.79764e-25
-1.99706e-23
-9.23295e-22
-3.70431e-20
-1.26615e-18
-3.59183e-17
-8.13755e-16
-1.38582e-14
-1.59279e-13
-9.69084e-13
-9.69443e-13
-1.59754e-13
-1.47692e-14
-2.1707e-30
-2.20282e-30
-2.03153e-30
5.82319e-30
4.36503e-28
2.20212e-26
9.79402e-25
3.76652e-23
1.20643e-21
2.99025e-20
4.62508e-19
-1.25179e-18
-3.29112e-16
-1.04138e-14
-1.72039e-13
-1.3399e-12
-1.34494e-12
-1.78041e-13
-1.18534e-14
1.84428e-29
2.22365e-29
2.79876e-29
7.71725e-29
2.84327e-27
1.64245e-25
8.72009e-24
4.15693e-22
1.75712e-20
6.48371e-19
2.04623e-17
5.37168e-16
1.12712e-14
1.77699e-13
1.88862e-12
1.06369e-11
1.06277e-11
1.87832e-12
1.87166e-13
1.23223e-28
1.36361e-28
1.5175e-28
1.88329e-28
2.42286e-27
1.82559e-25
1.23458e-23
7.14777e-22
3.56116e-20
1.51883e-18
5.4687e-17
1.62401e-15
3.83466e-14
6.78471e-13
8.08159e-12
5.07979e-11
5.08391e-11
8.13266e-12
7.26517e-13
-1.05603e-28
-1.65243e-28
-2.61709e-28
-9.15271e-28
-3.30651e-26
-1.75388e-24
-8.51405e-23
-3.68376e-21
-1.39809e-19
-4.56024e-18
-1.24314e-16
-2.7201e-15
-4.48266e-14
-4.95812e-13
-2.79489e-12
-7.79022e-13
-5.46359e-13
-2.52118e-12
-4.90263e-13
-3.71309e-27
-4.249e-27
-4.95726e-27
-7.6673e-27
-1.36315e-25
-7.81128e-24
-4.25298e-22
-2.08073e-20
-9.03124e-19
-3.42506e-17
-1.11244e-15
-3.01083e-14
-6.52834e-13
-1.06664e-11
-1.17867e-10
-6.91684e-10
-6.91547e-10
-1.17741e-10
-1.12983e-11
-9.37452e-27
-9.54317e-27
-9.42511e-27
-7.86071e-27
2.33394e-26
-6.93687e-25
-1.68391e-22
-1.42868e-20
-8.71818e-19
-4.23527e-17
-1.6734e-15
-5.3356e-14
-1.33414e-12
-2.47646e-11
-3.07371e-10
-2.00043e-09
-2.0028e-09
-3.10264e-10
-2.6638e-11
6.65123e-26
7.94718e-26
9.72438e-26
1.45628e-25
1.87099e-24
9.63919e-23
4.85124e-21
2.19342e-19
8.77781e-18
3.05728e-16
9.06632e-15
2.2219e-13
4.31214e-12
6.20554e-11
5.90937e-10
2.91826e-09
2.91021e-09
5.81597e-10
6.46386e-11
4.56503e-25
5.01407e-25
5.54661e-25
6.79623e-25
5.4981e-24
2.9806e-22
1.65523e-20
8.26541e-19
3.66048e-17
1.41639e-15
4.69479e-14
1.29737e-12
2.87426e-11
4.8027e-10
5.43278e-09
3.26393e-08
3.26433e-08
5.43888e-09
5.10137e-10
-1.87645e-25
-3.59378e-25
-6.13575e-25
-1.04198e-24
-6.90973e-24
-2.31067e-22
-7.08807e-21
-9.7367e-20
6.13518e-18
6.14886e-16
3.22304e-14
1.20479e-12
3.34462e-11
6.69417e-10
8.8e-09
5.98597e-08
5.9954e-08
8.91366e-09
7.23963e-10
-1.17894e-23
-1.33813e-23
-1.54074e-23
-1.87794e-23
-9.07665e-23
-4.0214e-21
-2.05594e-19
-9.50273e-18
-3.90017e-16
-1.39867e-14
-4.29222e-13
-1.09576e-11
-2.23501e-10
-3.42204e-09
-3.52688e-08
-1.9245e-07
-1.92235e-07
-3.50241e-08
-3.59931e-09
-3.33247e-23
-3.42975e-23
-3.47688e-23
-3.66873e-23
-1.84296e-22
-9.45771e-21
-5.32379e-19
-2.69519e-17
-1.20964e-15
-4.74267e-14
-1.59288e-12
-4.46099e-11
-1.00191e-09
-1.69784e-08
-1.94855e-07
-1.1875e-06
-1.18782e-06
-1.95277e-07
-1.80552e-08
1.69655e-22
2.02473e-22
2.46147e-22
3.01898e-22
6.2731e-22
1.33128e-20
5.28291e-19
1.78111e-17
4.41584e-16
4.56553e-15
-2.41277e-13
-1.70735e-11
-6.02166e-10
-1.37325e-08
-1.96202e-07
-1.41219e-06
-1.41496e-06
-1.99523e-07
-1.49531e-08
1.30134e-21
1.42318e-21
1.56677e-21
1.75241e-21
4.14329e-21
1.31712e-19
6.72946e-18
3.14211e-16
1.30504e-14
4.74472e-13
1.47933e-11
3.84684e-10
8.01725e-09
1.25906e-07
1.33701e-06
7.54786e-06
7.54322e-06
1.33186e-06
1.32907e-07
3.21483e-22
-1.19543e-23
-5.05933e-22
-1.06771e-21
2.29206e-21
2.5871e-19
1.4788e-17
7.50514e-16
3.37788e-14
1.32886e-12
4.4809e-11
1.26064e-09
2.84591e-08
4.85035e-07
5.60153e-06
3.43598e-05
3.43699e-05
5.61482e-06
5.15791e-07
-2.7389e-20
-3.09507e-20
-3.54302e-20
-4.05491e-20
-5.35757e-20
-4.26666e-19
-1.60848e-17
-5.83425e-16
-1.70517e-14
-3.43919e-13
-1.51569e-12
2.19755e-10
1.04961e-08
2.67681e-07
4.0568e-06
3.02626e-05
3.03242e-05
4.13055e-06
2.91999e-07
-9.25185e-20
-9.64163e-20
-9.98385e-20
-1.03135e-19
-1.6066e-19
-3.37379e-18
-1.69833e-16
-7.93742e-15
-3.30394e-13
-1.20512e-11
-3.77391e-10
-9.86935e-09
-2.07153e-07
-3.28167e-06
-3.52165e-05
-0.000201205
-0.000201117
-3.5121e-05
-3.4689e-06
2.81579e-19
3.40979e-19
4.19557e-19
5.09098e-19
5.07973e-19
-5.82545e-18
-3.64414e-16
-1.82955e-14
-8.14648e-13
-3.17616e-11
-1.06305e-09
-2.97258e-08
-6.678e-07
-1.13388e-05
-0.000130592
-0.000799686
-0.000799871
-0.00013084
-1.20471e-05
2.74745e-18
2.9998e-18
3.29927e-18
3.61771e-18
4.05891e-18
9.5195e-18
2.08126e-16
6.22335e-15
1.15617e-13
-1.28264e-12
-2.23127e-10
-1.09653e-08
-3.46655e-07
-7.50335e-06
-0.000104073
-0.000735928
-0.000736947
-0.000105301
-8.08019e-06
2.88182e-18
2.49978e-18
1.90162e-18
1.14204e-18
1.22398e-18
5.96798e-17
3.1229e-15
1.45027e-13
5.99356e-12
2.17148e-10
6.75757e-09
1.7569e-07
3.66765e-06
5.78109e-05
0.000617542
0.00351418
0.00351266
0.000615878
6.1119e-05
-4.41586e-17
-4.99458e-17
-5.72026e-17
-6.52239e-17
-7.17351e-17
5.70978e-17
7.547e-15
3.73777e-13
1.63011e-11
6.23661e-10
2.0521e-08
5.65059e-07
1.25189e-05
0.000209915
0.00239077
0.0145011
0.0145027
0.00239315
0.000222742
-1.88298e-16
-1.98257e-16
-2.0866e-16
-2.18239e-16
-2.26293e-16
-1.96507e-16
2.70237e-15
1.87249e-13
9.98794e-12
4.48728e-10
1.688e-08
5.2131e-07
1.27695e-05
0.000234091
0.00288721
0.0187631
0.0187744
0.00290123
0.000249409
2.39884e-16
3.12728e-16
4.09268e-16
5.21261e-16
6.37651e-16
1.12097e-16
-3.34953e-14
-1.56216e-12
-6.31018e-11
-2.23023e-09
-6.75933e-08
-1.70795e-06
-3.45613e-05
-0.000526331
-0.00541105
-0.0295486
-0.0295275
-0.00538721
-0.000555809
4.0744e-15
4.45341e-15
4.90663e-15
5.38889e-15
5.86025e-15
4.28081e-15
-1.06356e-13
-5.3957e-12
-2.29861e-10
-8.59242e-09
-2.76559e-07
-7.45729e-06
-0.000161954
-0.00266463
-0.0298102
-0.177918
-0.177911
-0.0298082
-0.002824
7.95671e-15
7.82034e-15
7.51105e-15
7.03378e-15
6.31985e-15
2.58805e-15
-1.55019e-13
-7.91084e-12
-3.50223e-10
-1.36036e-08
-4.54582e-07
-1.27165e-05
-0.000286331
-0.00488136
-0.0565387
-0.348588
-0.348645
-0.0566178
-0.00517935
-4.52939e-14
-5.18209e-14
-5.9984e-14
-6.90532e-14
-7.89954e-14
-8.89416e-14
-6.74032e-14
7.0876e-13
1.76297e-13
-1.29149e-09
-8.37905e-08
-3.40961e-06
-9.93437e-05
-0.00205606
-0.0277479
-0.192891
-0.193048
-0.0279403
-0.00219228
-2.63078e-13
-2.79107e-13
-2.96996e-13
-3.14784e-13
-3.31857e-13
-3.34625e-13
3.52189e-13
3.26481e-11
1.35805e-09
4.90743e-08
1.52571e-06
3.97111e-05
0.000831805
0.0131882
0.142081
0.81736
0.817135
0.141844
0.0139605
-3.91041e-14
1.69385e-14
9.20048e-14
1.8056e-13
2.84004e-13
4.38564e-13
2.4611e-12
9.16616e-11
3.8433e-09
1.42751e-07
4.57125e-06
0.000122763
0.00265816
0.0436505
0.487924
2.91266
2.91248
0.487802
0.0462458
3.96912e-12
4.3611e-12
4.83037e-12
5.33321e-12
5.86723e-12
6.49105e-12
1.03285e-11
1.65768e-10
6.75926e-09
2.5358e-07
8.21201e-06
0.000223101
0.00488832
0.0812508
0.919414
5.55375
5.55368
0.919526
0.0860924
1.18367e-11
1.20749e-11
1.22531e-11
1.23308e-11
1.22893e-11
1.21866e-11
1.61011e-11
2.1976e-10
8.96203e-09
3.38123e-07
1.10126e-05
0.000300934
0.00663289
0.110912
1.26265
7.67127
7.67132
1.26297
0.117517
-2.49967e-11
-2.99113e-11
-3.60169e-11
-4.28262e-11
-5.03409e-11
-5.85125e-11
-6.28825e-11
1.5164e-10
9.7712e-09
3.73207e-07
1.21889e-05
0.000333924
0.00737899
0.123712
1.41207
8.60073
8.60081
1.41246
0.13107
-2.37234e-10
-2.53311e-10
-2.7163e-10
-2.90364e-10
-3.09253e-10
-3.28043e-10
-3.4205e-10
-1.3574e-10
9.4885e-09
3.7348e-07
1.22116e-05
0.000334677
0.00739846
0.124087
1.41693
8.63375
8.63382
1.4173
0.131463
-2.98749e-10
-2.73957e-10
-2.39748e-10
-1.97554e-10
-1.4668e-10
-8.61928e-11
-1.07734e-11
2.92576e-10
9.88038e-09
3.6826e-07
1.20157e-05
0.000329161
0.00727372
0.121948
1.39196
8.47844
8.4785
1.39232
0.129197
2.38381e-09
2.65608e-09
2.97845e-09
3.32485e-09
3.69371e-09
4.08498e-09
4.50274e-09
5.15816e-09
1.50891e-08
3.73137e-07
1.1997e-05
0.000328459
0.00725728
0.121658
1.3885
8.45641
8.45647
1.38886
0.128891
1.01133e-08
1.0465e-08
1.08235e-08
1.114e-08
1.1402e-08
1.15987e-08
1.17232e-08
1.19753e-08
2.14026e-08
3.79694e-07
1.20331e-05
0.000329343
0.0072773
0.122004
1.39255
8.48172
8.48179
1.39291
0.129257
-4.35173e-09
-6.90369e-09
-1.0013e-08
-1.35045e-08
-1.73905e-08
-2.16918e-08
-2.64244e-08
-3.13953e-08
-2.75625e-08
3.24704e-07
1.19698e-05
0.00032922
0.00727601
0.121983
1.39231
8.48032
8.48038
1.39267
0.129235
-1.35257e-07
-1.45516e-07
-1.57076e-07
-1.68974e-07
-1.81087e-07
-1.93328e-07
-2.05598e-07
-2.17578e-07
-2.20091e-07
1.26536e-07
1.17636e-05
0.000328915
0.00727355
0.121944
1.39185
8.47739
8.47746
1.39221
0.129194
-2.74256e-07
-2.66866e-07
-2.56181e-07
-2.41762e-07
-2.23188e-07
-2.00068e-07
-1.71988e-07
-1.38329e-07
-8.96043e-08
3.14245e-07
1.20168e-05
0.000329301
0.00727553
0.121973
1.39219
8.47955
8.47962
1.39256
0.129225
9.45931e-07
1.08406e-06
1.24206e-06
1.41111e-06
1.59061e-06
1.78015e-06
1.97961e-06
2.18926e-06
2.41832e-06
3.00659e-06
1.4896e-05
0.000332342
0.00727816
0.121967
1.3921
8.47905
8.47912
1.39247
0.129219
5.28461e-06
5.48995e-06
5.69813e-06
5.88569e-06
6.04764e-06
6.17806e-06
6.27572e-06
6.33707e-06
6.36512e-06
6.6934e-06
1.82489e-05
0.000335165
0.00727735
0.121909
1.3914
8.4749
8.47496
1.39176
0.129148
6.72966e-07
-4.70294e-07
-1.78049e-06
-3.22334e-06
-4.79617e-06
-6.55064e-06
-8.53854e-06
-1.08044e-05
-1.33802e-05
-1.59061e-05
-7.42054e-06
0.000306018
0.0072379
0.121731
1.3896
8.46387
8.46392
1.38993
0.128932
-5.74859e-05
-6.17382e-05
-6.62345e-05
-7.07201e-05
-7.50441e-05
-8.02185e-05
-8.60591e-05
-9.23874e-05
-9.91424e-05
-0.000104784
-9.83777e-05
0.00021404
0.00714591
0.121619
1.38902
8.45952
8.45957
1.38934
0.128832
-0.000125313
-0.000122792
-0.000119775
-0.000116048
-0.000106683
-9.17101e-05
-7.11992e-05
-4.52349e-05
-1.88015e-05
8.38867e-06
4.72951e-05
0.000393246
0.00739454
0.122573
1.39753
8.50808
8.50816
1.39799
0.130032
0.000301783
0.000331714
0.000362971
0.000394703
0.000623071
0.000852494
0.00108292
0.00131412
0.00134987
0.00138604
0.00143368
0.00179155
0.00890098
0.125977
1.42319
8.65772
8.65784
1.42384
0.133754
0.00176905
0.00180236
0.00183912
0.00187619
0.00209973
0.00232304
0.00254611
0.00276876
0.00280473
0.00284103
0.00288879
0.00324975
0.0104549
0.129485
1.45118
8.82966
8.82987
1.45209
0.137571
0.00323664
0.00326658
0.003302
0.00333778
0.00354985
0.0037616
0.00397302
0.00418395
0.0042182
0.00425271
0.00429843
0.00465115
0.0117027
0.128222
1.42398
8.67554
8.67582
1.42481
0.135954
0.00460336
0.00462732
0.00465798
0.00468902
0.00488616
0.00508284
0.00527906
0.00547468
0.00550358
0.0055326
0.00557202
0.00589152
0.012201
0.115234
1.25653
7.66764
7.6678
1.25633
0.120938
0.00571517
0.0057294
0.00575035
0.00577166
0.00594885
0.00612547
0.00630152
0.00647686
0.00649547
0.00651407
0.00654173
0.00679861
0.0116631
0.0877785
0.913948
5.57554
5.5753
0.91142
0.0893731
0.00638841
0.00639054
0.00639845
0.00640668
0.0065607
0.00671414
0.00686701
0.00701917
0.0070247
0.00703023
0.00704338
0.00722515
0.0103332
0.0532517
0.485854
2.93778
2.93697
0.480313
0.0497397
0.006547
0.00653881
0.00653518
0.00653193
0.0066645
0.00679663
0.00692833
0.00705948
0.00705423
0.00704912
0.00705072
0.00717456
0.00891417
0.0256658
0.144954
0.822543
0.821258
0.136995
0.018119
0.00631148
0.00629862
0.00628952
0.00628091
0.00639822
0.00651531
0.0066322
0.0067488
0.00673936
0.00673031
0.00672778
0.0068282
0.00798641
0.0134595
-0.00374841
-0.106209
-0.107677
-0.0127318
0.00419433
0.00592484
0.00591259
0.00590372
0.00589529
0.00600261
0.00611009
0.00621765
0.00632509
0.00631669
0.00630822
0.00630582
0.00640574
0.00755087
0.0127054
-0.00897523
-0.139592
-0.141046
-0.0179669
0.0034067
0.00552682
0.00551192
0.00549979
0.00548774
0.00557868
0.00566663
0.0057516
0.00583357
0.00580934
0.00578523
0.00576752
0.0058564
0.00709238
0.0141677
0.0153022
0.0150211
0.0135884
0.0064156
0.00506965
0.0049095
0.00488184
0.00485631
0.00483093
0.00480555
0.00477952
0.00475288
0.00472564
0.00469774
0.00467015
0.00464925
0.00473744
0.00600606
0.0134632
0.0177943
0.0360853
0.0346371
0.00879363
0.0042741
0.00380118
0.00377292
0.00374549
0.00371827
0.00369109
0.00366391
0.00363676
0.00360963
0.00358253
0.00355578
0.00353585
0.00362655
0.00490558
0.0122078
0.0128666
0.00987873
0.00841012
0.00369305
0.00283942
0.00272822
0.00270281
0.00267704
0.00265145
0.00262592
0.00260046
0.00257506
0.00254972
0.00252447
0.00249958
0.00248141
0.00257155
0.00382851
0.0110283
0.0118873
0.0100863
0.00865852
0.00290887
0.00187428
0.00174541
0.00172411
0.00170172
0.00167947
0.00165734
0.00163534
0.00161346
0.00159171
0.0015701
0.00154888
0.00153359
0.00161358
0.00272422
0.00913078
0.0103198
0.0112034
0.009954
0.00241045
0.00108014
0.000927658
0.000912167
0.000895474
0.00087891
0.000862522
0.000846308
0.000830269
0.000814406
0.000798726
0.000783413
0.000772445
0.000830291
0.00163507
0.00628775
0.00697467
0.00658512
0.00568438
0.00123278
0.000449168
0.00035887
0.000350099
0.000340496
0.000331012
0.000321698
0.000312553
0.000303576
0.000294767
0.000286127
0.00027775
0.000271701
0.000301672
0.000724331
0.00318464
0.00358578
0.00360813
0.00313759
0.000564201
0.000115571
6.62561e-05
6.30654e-05
5.954e-05
5.6093e-05
5.27519e-05
4.95158e-05
4.63828e-05
4.33511e-05
4.04195e-05
3.76117e-05
3.54896e-05
4.33276e-05
0.000160248
0.000848223
0.000954822
0.000932619
0.000802891
0.0001129
-5.92345e-06
-1.82129e-05
-1.84945e-05
-1.88067e-05
-1.90907e-05
-1.93417e-05
-1.95605e-05
-1.97484e-05
-1.99065e-05
-2.00363e-05
-2.01428e-05
-2.03125e-05
-2.19108e-05
-3.91211e-05
-0.000135885
-0.000151266
-0.000147954
-0.000128981
-3.1776e-05
-1.43757e-05
-1.21965e-05
-1.18854e-05
-1.1539e-05
-1.1193e-05
-1.08496e-05
-1.05093e-05
-1.01722e-05
-9.8385e-06
-9.50871e-06
-9.18782e-06
-8.98285e-06
-1.06496e-05
-3.29304e-05
-0.000163093
-0.000183723
-0.000181812
-0.000157267
-2.46006e-05
-1.71402e-06
6.75705e-07
7.53886e-07
8.40636e-07
9.23831e-07
1.00252e-06
1.07676e-06
1.14665e-06
1.2123e-06
1.27382e-06
1.33133e-06
1.38485e-06
1.42871e-06
1.35045e-06
3.49605e-07
2.46365e-07
2.59693e-07
3.57747e-07
1.33706e-06
1.42054e-06
1.37845e-06
1.34476e-06
1.30709e-06
1.26932e-06
1.23171e-06
1.19432e-06
1.15716e-06
1.12027e-06
1.08371e-06
1.04817e-06
1.02855e-06
1.27041e-06
4.40773e-06
2.27746e-05
2.56761e-05
2.539e-05
2.19534e-05
3.28078e-06
7.96109e-08
-2.43635e-07
-2.47919e-07
-2.5266e-07
-2.57046e-07
-2.61007e-07
-2.64552e-07
-2.67691e-07
-2.7044e-07
-2.72813e-07
-2.74925e-07
-2.79035e-07
-3.21774e-07
-7.9085e-07
-3.47369e-06
-3.90378e-06
-3.8606e-06
-3.34997e-06
-6.21757e-07
-1.45148e-07
-9.14956e-08
-8.72241e-08
-8.24591e-08
-7.776e-08
-7.31679e-08
-6.86848e-08
-6.43103e-08
-6.00444e-08
-5.58888e-08
-5.19017e-08
-4.93948e-08
-7.02524e-08
-3.51648e-07
-2.01747e-06
-2.27865e-06
-2.25424e-06
-1.94706e-06
-2.55319e-07
3.06915e-08
5.72238e-08
5.61562e-08
5.49683e-08
5.37777e-08
5.25913e-08
5.14099e-08
5.02341e-08
4.90644e-08
4.79026e-08
4.67848e-08
4.65045e-08
6.02264e-08
2.29958e-07
1.22504e-06
1.38199e-06
1.36731e-06
1.18279e-06
1.72393e-07
4.06482e-10
-1.63188e-08
-1.61888e-08
-1.60469e-08
-1.59021e-08
-1.57541e-08
-1.56031e-08
-1.54491e-08
-1.52924e-08
-1.51333e-08
-1.49827e-08
-1.50779e-08
-1.93545e-08
-7.02388e-08
-3.67556e-07
-4.14545e-07
-4.10194e-07
-3.5504e-07
-5.32433e-08
-1.81014e-09
3.24483e-09
3.24429e-09
3.24499e-09
3.24518e-09
3.24452e-09
3.24301e-09
3.24064e-09
3.23742e-09
3.23345e-09
3.23098e-09
3.28029e-09
4.21541e-09
1.50289e-08
7.80827e-08
8.80595e-08
8.71461e-08
7.54572e-08
1.14754e-08
5.70338e-10
-5.05528e-10
-5.08862e-10
-5.12921e-10
-5.16963e-10
-5.20901e-10
-5.24725e-10
-5.28434e-10
-5.32026e-10
-5.35513e-10
-5.3927e-10
-5.51695e-10
-7.12204e-10
-2.52471e-09
-1.30777e-08
-1.47488e-08
-1.45976e-08
-1.26434e-08
-1.93882e-09
-1.14949e-10
6.52374e-11
6.60775e-11
6.70799e-11
6.80945e-11
6.91052e-11
7.01106e-11
7.11099e-11
7.21029e-11
7.30909e-11
7.41256e-11
7.63732e-11
9.92083e-11
3.51762e-10
1.82047e-09
2.05318e-09
2.03239e-09
1.76076e-09
2.7146e-10
1.78523e-11
-7.20128e-12
-7.33765e-12
-7.49984e-12
-7.6656e-12
-7.83268e-12
-8.0009e-12
-8.17019e-12
-8.34049e-12
-8.51198e-12
-8.6908e-12
-9.01588e-12
-1.1797e-11
-4.19836e-11
-2.17351e-10
-2.45153e-10
-2.427e-10
-2.1031e-10
-3.2543e-11
-2.29183e-12
5.88619e-13
6.02828e-13
6.19739e-13
6.37139e-13
6.54818e-13
6.72761e-13
6.90963e-13
7.09423e-13
7.28157e-13
7.47705e-13
7.8022e-13
1.02789e-12
3.67631e-12
1.90518e-11
2.149e-11
2.12772e-11
1.84411e-11
2.85974e-12
2.1023e-13
)
;

boundaryField
{
    top
    {
        type            zeroGradient;
    }
    left
    {
        type            fixedValue;
        value           uniform 0;
    }
    bottom
    {
        type            zeroGradient;
    }
    right
    {
        type            zeroGradient;
    }
    frontAndBack
    {
        type            empty;
    }
}


// ************************************************************************* //
