/*--------------------------------*- C++ -*----------------------------------*\
| =========                 |                                                 |
| \\      /  F ield         | OpenFOAM: The Open Source CFD Toolbox           |
|  \\    /   O peration     | Version:  v1806                                 |
|   \\  /    A nd           | Web:      www.OpenFOAM.com                      |
|    \\/     M anipulation  |                                                 |
\*---------------------------------------------------------------------------*/
FoamFile
{
    version     2.0;
    format      ascii;
    class       volScalarField;
    location    "0.02";
    object      T;
}
// * * * * * * * * * * * * * * * * * * * * * * * * * * * * * * * * * * * * * //

dimensions      [0 0 0 1 0 0 0];


internalField   nonuniform List<scalar> 
1881
(
4.5877e-140
2.76416e-138
1.5844e-136
8.46588e-135
4.19211e-133
1.91054e-131
7.94849e-130
2.98896e-128
1.00361e-126
2.96292e-125
7.53825e-124
1.60842e-122
2.76815e-121
3.61802e-120
3.23166e-119
1.56479e-118
1.55014e-118
3.05317e-119
3.49432e-120
1.01085e-137
6.11332e-136
3.51709e-134
1.88626e-132
9.3751e-131
4.28864e-129
1.79091e-127
6.75991e-126
2.27835e-124
6.75173e-123
1.72429e-121
3.69302e-120
6.37994e-119
8.37012e-118
7.504e-117
3.64597e-116
3.61286e-116
7.10069e-117
8.10563e-118
2.2074e-135
1.33997e-133
7.73755e-132
4.16513e-130
2.07787e-128
9.54072e-127
3.99908e-125
1.51516e-123
5.1259e-122
1.52477e-120
3.90878e-119
8.40346e-118
1.45726e-116
1.91904e-115
1.72684e-114
8.41905e-114
8.34491e-114
1.63657e-114
1.86333e-115
4.75472e-133
2.89711e-131
1.67912e-129
9.0724e-128
4.54288e-126
2.09373e-124
8.80908e-123
3.35014e-121
1.13767e-119
3.39702e-118
8.74143e-117
1.88647e-115
3.2838e-114
4.34076e-113
3.92052e-112
1.91802e-111
1.90165e-111
3.72134e-112
4.22584e-113
1.00992e-130
6.17676e-129
3.5933e-127
1.94874e-125
9.79466e-124
4.53116e-122
1.91363e-120
7.3052e-119
2.4902e-117
7.46389e-116
1.92799e-114
4.17666e-113
7.29812e-112
9.68384e-111
8.77897e-110
4.30981e-109
4.27418e-109
8.34573e-110
9.45206e-111
2.11465e-128
1.29823e-126
7.58061e-125
4.12658e-123
2.08189e-121
9.66755e-120
4.09834e-118
1.57048e-116
5.37386e-115
1.61687e-113
4.19254e-112
9.11726e-111
1.59922e-109
2.13009e-108
1.93829e-107
9.54872e-107
9.47228e-107
1.84544e-107
2.08448e-108
4.36353e-126
2.68903e-124
1.57607e-122
8.61184e-121
4.36116e-119
2.03284e-117
8.65057e-116
3.32754e-114
1.14298e-112
3.45217e-111
8.9859e-110
1.96164e-108
3.45407e-107
4.61829e-106
4.21826e-105
2.08534e-104
2.06919e-104
4.02224e-105
4.53098e-106
8.87044e-124
5.48724e-122
3.22826e-120
1.77062e-118
9.00072e-117
4.21143e-115
1.79898e-113
6.9465e-112
2.39523e-110
7.26226e-109
1.89765e-107
4.15862e-106
7.35084e-105
9.86629e-104
9.04573e-103
4.48757e-102
4.45398e-102
8.63828e-103
9.70433e-104
1.77587e-121
1.10275e-119
6.51224e-118
3.58537e-116
1.82951e-114
8.59301e-113
3.68471e-111
1.42827e-109
4.94385e-108
1.50476e-106
3.94723e-105
8.68378e-104
1.54091e-102
2.0762e-101
1.91075e-100
9.51265e-100
9.44387e-100
1.82738e-100
2.04724e-101
3.5001e-119
2.18178e-117
1.29333e-115
7.14767e-114
3.6612e-112
1.72622e-110
7.43059e-109
2.89138e-107
1.0047e-105
3.0699e-104
8.08419e-103
1.78543e-101
3.18054e-100
4.30201e-99
3.97427e-98
1.98561e-97
1.97175e-97
3.80644e-98
4.25256e-99
6.78882e-117
4.24809e-115
2.52781e-113
1.40235e-111
7.21074e-110
3.41289e-108
1.47477e-106
5.76085e-105
2.00958e-103
6.16428e-102
1.62963e-100
3.6132e-99
6.46168e-98
8.7741e-97
8.13666e-96
4.07968e-95
4.05223e-95
7.80438e-96
8.69458e-97
1.29534e-114
8.13691e-113
4.86036e-111
2.70673e-109
1.39713e-107
6.63828e-106
2.87965e-104
1.12925e-102
3.95458e-101
1.2178e-99
3.23208e-98
7.19429e-97
1.29165e-95
1.76074e-94
1.63909e-93
8.24774e-93
8.19426e-93
1.57442e-93
1.74903e-94
2.43038e-112
1.53262e-110
9.1898e-109
5.13752e-107
2.66209e-105
1.26976e-103
5.52962e-102
2.1769e-100
7.65331e-99
2.36607e-97
6.30438e-96
1.40883e-94
2.53935e-93
3.47516e-92
3.24755e-91
1.64e-90
1.62976e-90
3.12383e-91
3.46034e-92
4.48213e-110
2.83748e-108
1.70795e-106
9.58518e-105
4.986e-103
2.38749e-101
1.04378e-99
4.12527e-98
1.45603e-96
4.51916e-95
1.20889e-93
2.71219e-92
4.90796e-91
6.74312e-90
6.32588e-89
3.20608e-88
3.18683e-88
6.09344e-89
6.73032e-90
8.12128e-108
5.16139e-106
3.11881e-104
1.7571e-102
9.17567e-101
4.41085e-99
1.93594e-97
7.68143e-96
2.7219e-94
8.48159e-93
2.27787e-91
5.1308e-90
9.32157e-89
1.28577e-87
1.21091e-86
6.15935e-86
6.12381e-86
1.16803e-86
1.28634e-87
1.44509e-105
9.22017e-104
5.59299e-102
3.16331e-100
1.65836e-98
8.00325e-97
3.5265e-95
1.40478e-93
4.99755e-92
1.56346e-90
4.21568e-89
9.53356e-88
1.73896e-86
2.40816e-85
2.2768e-84
1.16233e-83
1.15589e-83
2.1992e-84
2.41481e-85
2.52399e-103
1.61674e-101
9.84545e-100
5.59023e-98
2.94219e-96
1.4255e-94
6.30606e-93
2.522e-91
9.00781e-90
2.82931e-88
7.65942e-87
1.73909e-85
3.18487e-84
4.4281e-83
4.20299e-82
2.15351e-81
2.14207e-81
4.06523e-82
4.45048e-83
4.32499e-101
2.78133e-99
1.70038e-97
9.69264e-96
5.12145e-94
2.49118e-92
1.10642e-90
4.44255e-89
1.59309e-87
5.02389e-86
1.36552e-84
3.11292e-83
5.72378e-82
7.98996e-81
7.61365e-80
3.91538e-79
3.89546e-79
7.37396e-80
8.04843e-81
7.26707e-99
4.69189e-97
2.87968e-95
1.64798e-93
8.74216e-92
4.26926e-90
1.90369e-88
7.67439e-87
2.76307e-85
8.74858e-84
2.38751e-82
5.46471e-81
1.00887e-79
1.41397e-78
1.3527e-77
6.98204e-77
6.94806e-77
1.31184e-77
1.42747e-78
1.19666e-96
7.7569e-95
4.77963e-93
2.74612e-91
1.46254e-89
7.17088e-88
3.21034e-86
1.29939e-84
4.69717e-83
1.49326e-81
4.09165e-80
9.40329e-79
1.74303e-77
2.45279e-76
2.35584e-75
1.22049e-74
1.21481e-74
2.28766e-75
2.48164e-76
1.93005e-94
1.25609e-92
7.77041e-91
4.48221e-89
2.39669e-87
1.17981e-85
5.30314e-84
2.15512e-82
7.82207e-81
2.49677e-79
6.86921e-78
1.5851e-76
2.95017e-75
4.16832e-74
4.01953e-73
2.09015e-72
2.08088e-72
3.90821e-73
4.22642e-74
3.04711e-92
1.99104e-90
1.2366e-88
7.16155e-87
3.84471e-85
1.90024e-83
8.57586e-82
3.49923e-80
1.27522e-78
4.08703e-77
1.12903e-75
2.61595e-74
4.88871e-73
6.93544e-72
6.71469e-71
3.50469e-70
3.48987e-70
6.53696e-71
7.04701e-72
4.70597e-90
3.08738e-88
1.92517e-86
1.1194e-84
6.03373e-83
2.99419e-81
1.35677e-79
5.55859e-78
2.03397e-76
6.54551e-75
1.8156e-73
4.22401e-72
7.92629e-71
1.12908e-69
1.09754e-68
5.75006e-68
5.72692e-68
1.06982e-68
1.14963e-69
7.10493e-88
4.68011e-86
2.93004e-84
1.71054e-82
9.25731e-81
4.6125e-79
2.09859e-77
8.63287e-76
3.17184e-74
1.02492e-72
2.85466e-71
6.66879e-70
1.25655e-68
1.79728e-67
1.75414e-66
9.22472e-66
9.18944e-66
1.71192e-66
1.83373e-67
1.04787e-85
6.93055e-84
4.35641e-82
2.55353e-80
1.38756e-78
6.94172e-77
3.17124e-75
1.30989e-73
4.83253e-72
1.56799e-70
4.3853e-69
1.0287e-67
1.94634e-66
2.79537e-65
2.73936e-64
1.44605e-63
1.4408e-63
2.67664e-64
2.85779e-65
1.50858e-83
1.00184e-81
6.32281e-80
3.72118e-78
2.03028e-76
1.01987e-74
4.67826e-73
1.94032e-71
7.18795e-70
2.34191e-68
6.57699e-67
1.54924e-65
2.94343e-64
4.24494e-63
4.17685e-62
2.21327e-61
2.20566e-61
4.08603e-62
4.34825e-63
2.11833e-81
1.41253e-79
8.95096e-78
5.28939e-76
2.8977e-74
1.46157e-72
6.73204e-71
2.80368e-69
1.04294e-67
3.41213e-66
9.62259e-65
2.27612e-63
4.34251e-62
6.28873e-61
6.2132e-60
3.30491e-59
3.29417e-59
6.08515e-60
6.45418e-61
2.89876e-79
1.94089e-77
1.23492e-75
7.32735e-74
4.03064e-72
2.0414e-70
9.44164e-69
3.94847e-67
1.4749e-65
4.84555e-64
1.37223e-62
3.25948e-61
6.24472e-60
9.08126e-59
9.00911e-58
4.81053e-57
4.79579e-57
8.83346e-58
9.33775e-59
3.86221e-77
2.59665e-75
1.65892e-73
9.88357e-72
5.45919e-70
2.77636e-68
1.28943e-66
5.41483e-65
2.03111e-63
6.70087e-62
1.90563e-60
4.54556e-59
8.74538e-58
1.27712e-56
1.27221e-55
6.81938e-55
6.79969e-55
1.24879e-55
1.31561e-56
5.0055e-75
3.37927e-73
2.16778e-71
1.29685e-69
7.19282e-68
3.67323e-66
1.71308e-64
7.22403e-63
2.72112e-61
9.01517e-60
2.57461e-58
6.16732e-57
1.19158e-55
1.74744e-54
1.74795e-53
9.40584e-53
9.38033e-53
1.71764e-53
1.80334e-54
6.30378e-73
4.27348e-71
2.75271e-69
1.65361e-67
9.20965e-66
4.72281e-64
2.21179e-62
9.36634e-61
3.54297e-59
1.17876e-57
3.38068e-56
8.13264e-55
1.57798e-53
2.32389e-52
2.33426e-51
1.26098e-50
1.25778e-50
2.29623e-51
2.40244e-52
7.70591e-71
5.24586e-69
3.39306e-67
2.04675e-65
1.14468e-63
5.89466e-62
2.77221e-60
1.17891e-58
4.47832e-57
1.49629e-55
4.30964e-54
1.04116e-52
2.0288e-51
3.00053e-50
3.02654e-49
1.64136e-48
1.63746e-48
2.98033e-49
3.10724e-50
9.13286e-69
6.24337e-67
4.05505e-65
2.45629e-63
1.37948e-61
7.13368e-60
3.36909e-58
1.43882e-56
5.48887e-55
1.84177e-53
5.32739e-52
1.29256e-50
2.52947e-49
3.75699e-48
3.80551e-47
2.07194e-46
2.06735e-46
3.7512e-47
3.89707e-48
1.0481e-66
7.1952e-65
4.69278e-63
2.8545e-61
1.60987e-59
8.36029e-58
3.96514e-56
1.70058e-54
6.51518e-53
2.19552e-51
6.37793e-50
1.55412e-48
3.05442e-47
4.55616e-46
4.63451e-45
2.53328e-44
2.52806e-44
4.57287e-45
4.73365e-46
1.16313e-64
8.01864e-63
5.25177e-61
3.20797e-59
1.81687e-57
9.47531e-56
4.51312e-54
1.94388e-52
7.47926e-51
2.53125e-49
7.38497e-48
1.80729e-46
3.56736e-45
5.34424e-44
5.45922e-43
2.99595e-42
2.99022e-42
5.39179e-43
5.5611e-44
1.24636e-62
8.62896e-61
5.6753e-59
3.48134e-57
1.98007e-55
1.03704e-53
4.9606e-52
2.14579e-50
8.29173e-49
2.81836e-47
8.25827e-46
2.02979e-44
4.02397e-43
6.05437e-42
6.21102e-41
3.42213e-40
3.4161e-40
6.14002e-41
6.30957e-42
1.28755e-60
8.95222e-59
5.91281e-57
3.64244e-55
2.08053e-53
1.09432e-51
5.25707e-50
2.28385e-48
8.86341e-47
3.02575e-45
8.90461e-44
2.1982e-42
4.37686e-41
6.61398e-40
6.81418e-39
3.76953e-38
3.76341e-38
6.74237e-39
6.90281e-40
1.28012e-58
8.93864e-57
5.92892e-55
3.66793e-53
2.10406e-51
1.11146e-49
5.36244e-48
2.33971e-46
9.1197e-45
3.12683e-43
9.24232e-42
2.29157e-40
4.58278e-39
6.9554e-38
7.19678e-37
3.99724e-36
3.99129e-36
7.12717e-37
7.26933e-38
1.2226e-56
8.57373e-55
5.71113e-53
3.54833e-51
2.0442e-49
1.0845e-47
5.25506e-46
2.30284e-44
9.01516e-43
3.10453e-41
9.21673e-40
2.29529e-38
4.61043e-37
7.02808e-36
7.30343e-35
4.07292e-34
4.06739e-34
7.23889e-35
7.3552e-36
1.11938e-54
7.88383e-53
5.27406e-51
3.29088e-49
1.90407e-47
1.01453e-45
4.93744e-44
2.17311e-42
8.5446e-41
2.95543e-39
8.81282e-38
2.20441e-36
4.44747e-35
6.80956e-34
7.10709e-33
3.97957e-32
3.97466e-32
7.05002e-33
7.13571e-34
9.803e-53
6.93424e-51
4.65877e-49
2.9195e-47
1.69652e-45
9.07885e-44
4.43772e-42
1.96174e-40
7.7475e-39
2.69157e-37
8.06159e-36
2.02546e-34
4.10459e-33
6.31241e-32
6.61698e-31
3.72029e-30
3.71615e-30
6.56897e-31
6.6229e-32
8.19128e-51
5.81943e-49
3.92667e-47
2.47139e-45
1.44238e-43
7.75258e-42
3.80609e-40
1.68993e-38
6.70358e-37
2.33924e-35
7.03752e-34
1.77605e-32
3.61524e-31
5.58457e-30
5.8797e-29
3.31936e-28
3.31605e-28
5.84141e-29
5.86613e-30
6.51275e-49
4.64717e-47
3.14929e-45
1.99076e-43
1.16695e-41
6.29972e-40
3.10645e-38
1.3854e-36
5.51997e-35
1.93481e-33
5.84683e-32
1.48217e-30
3.03056e-29
4.70232e-28
4.97263e-27
2.81889e-26
2.81638e-26
4.94379e-27
4.94489e-28
4.9121e-47
3.52043e-45
2.39611e-43
1.52128e-41
8.95667e-40
4.85654e-38
2.40541e-36
1.07752e-34
4.31244e-33
1.51832e-31
4.60886e-30
1.17361e-28
2.41046e-27
3.75694e-26
3.99049e-25
2.27152e-24
2.26974e-24
3.97005e-25
3.95488e-26
3.50244e-45
2.52122e-43
1.72353e-41
1.09907e-39
6.49941e-38
3.53976e-36
1.76102e-34
7.92384e-33
3.18549e-31
1.12659e-29
3.43519e-28
8.78698e-27
1.81292e-25
2.83835e-24
3.02821e-23
1.73095e-22
1.72976e-22
3.01464e-23
2.99083e-24
2.35175e-43
1.7004e-41
1.16752e-39
7.47793e-38
4.44172e-36
2.42985e-34
1.21424e-32
5.48809e-31
2.21622e-29
7.87338e-28
2.41162e-26
6.19679e-25
1.28432e-23
2.01988e-22
2.16462e-21
1.24251e-20
1.24176e-20
2.15623e-21
2.13034e-22
1.48053e-41
1.07524e-39
7.41532e-38
4.77053e-36
2.8462e-34
1.56398e-32
7.85056e-31
3.56425e-29
1.44583e-27
5.15981e-26
1.58765e-24
4.09817e-23
8.53248e-22
1.34803e-20
1.45111e-19
8.36457e-19
8.36027e-19
1.44631e-19
1.42295e-20
8.69456e-40
6.34267e-38
4.39356e-36
2.83911e-34
1.70144e-32
9.39132e-31
4.73532e-29
2.15962e-27
8.80028e-26
3.15491e-24
9.75192e-23
2.52878e-21
5.28912e-20
8.39439e-19
9.07701e-18
5.25439e-17
5.2521e-17
9.05186e-18
8.86778e-19
4.73517e-38
3.4698e-36
2.41422e-34
1.56704e-32
9.43318e-31
5.23023e-29
2.64914e-27
1.21367e-25
4.96818e-24
1.78925e-22
5.55603e-21
1.44737e-19
3.04123e-18
4.84892e-17
5.26698e-16
3.06186e-15
3.06075e-15
5.25498e-16
5.12596e-17
2.37515e-36
1.74828e-34
1.22186e-32
7.96648e-31
4.81724e-29
2.68301e-27
1.36514e-25
6.28276e-24
2.58363e-22
9.34755e-21
2.91601e-19
7.63146e-18
1.61095e-16
2.58034e-15
2.81556e-14
1.64377e-13
1.64329e-13
2.81043e-14
2.72948e-15
1.08832e-34
8.04705e-33
5.64923e-31
3.69988e-29
2.2474e-27
1.2574e-25
6.42695e-24
2.97143e-22
1.22755e-20
4.46177e-19
1.39832e-17
3.67651e-16
7.79693e-15
1.25466e-13
1.37529e-12
8.0637e-12
8.06181e-12
1.37335e-12
1.32791e-13
4.51059e-33
3.35027e-31
2.36257e-29
1.55433e-27
9.48429e-26
5.33059e-24
2.7371e-22
1.27129e-20
5.27619e-19
1.92662e-17
6.06612e-16
1.60237e-14
3.41407e-13
5.51939e-12
6.07784e-11
3.57898e-10
3.57833e-10
6.0715e-11
5.84435e-12
1.67039e-31
1.24635e-29
8.82883e-28
5.83485e-26
3.57657e-24
2.0194e-22
1.04167e-20
4.86055e-19
2.02661e-17
7.4347e-16
2.3518e-14
6.24138e-13
1.33604e-11
2.17002e-10
2.4006e-09
1.41974e-08
1.41955e-08
2.39888e-09
2.29868e-10
5.44272e-30
4.0796e-28
2.903e-26
1.92729e-24
1.18677e-22
6.73152e-21
3.48836e-19
1.63525e-17
6.84992e-16
2.52466e-14
8.02364e-13
2.13937e-11
4.60112e-10
7.50826e-09
8.3445e-08
4.9565e-07
4.95604e-07
8.34086e-08
7.95584e-09
1.52933e-28
1.15156e-26
8.23166e-25
5.48993e-23
3.39606e-21
1.93517e-19
1.00747e-17
4.74472e-16
1.9968e-14
7.39403e-13
2.36095e-11
6.32474e-10
1.36667e-08
2.24067e-07
2.50179e-06
1.49252e-05
1.49243e-05
2.50129e-06
2.37476e-07
3.60615e-27
2.72785e-25
1.95882e-23
1.31237e-21
8.15563e-20
4.66875e-18
2.44188e-16
1.15537e-14
4.88506e-13
1.8174e-11
5.83038e-10
1.56928e-08
3.40698e-07
5.61212e-06
6.2953e-05
0.00037721
0.000377197
6.29521e-05
5.94876e-06
6.86307e-26
5.21535e-24
3.7621e-22
2.53207e-20
1.58077e-18
9.091e-17
4.77688e-15
2.27069e-13
9.64568e-12
3.60535e-10
1.16208e-08
3.14257e-07
6.85493e-06
0.00011345
0.00127853
0.00769441
0.0076943
0.00127868
0.00012026
9.92516e-25
7.5767e-23
5.49022e-21
3.71199e-19
2.32798e-17
1.34497e-15
7.0998e-14
3.39052e-12
1.44697e-10
5.43372e-09
1.75961e-07
4.78082e-06
0.000104776
0.00174219
0.0197247
0.119225
0.119225
0.0197288
0.00184667
9.81595e-24
7.52686e-22
5.47833e-20
3.72049e-18
2.34377e-16
1.3602e-14
7.21265e-13
3.46007e-11
1.48339e-09
5.59605e-08
1.82051e-06
4.96913e-05
0.00109406
0.0182756
0.207855
1.26176
1.26176
0.207907
0.019369
5.27519e-23
4.0616e-21
2.96823e-19
2.02406e-17
1.28034e-15
7.4611e-14
3.97282e-12
1.91382e-10
8.23929e-09
3.12136e-07
1.01974e-05
0.000279524
0.00618051
0.103681
1.18437
7.21689
7.2169
1.18465
0.109861
6.1537e-23
4.73596e-21
3.45956e-19
2.35806e-17
1.49094e-15
8.68448e-14
4.6221e-12
2.22555e-10
9.57681e-09
3.62632e-07
1.18413e-05
0.000324426
0.00716988
0.120238
1.37449
8.36144
8.36145
1.37482
0.127407
6.24524e-23
4.80594e-21
3.51034e-19
2.39244e-17
1.51253e-15
8.80936e-14
4.68809e-12
2.2571e-10
9.71159e-09
3.67698e-07
1.20056e-05
0.0003289
0.00726869
0.121923
1.39488
8.47497
8.47498
1.39521
0.129192
6.25164e-23
4.81082e-21
3.51386e-19
2.39482e-17
1.51402e-15
8.81793e-14
4.6926e-12
2.25925e-10
9.72078e-09
3.68046e-07
1.20172e-05
0.000329237
0.00727742
0.122121
1.39801
8.48429
8.4843
1.39834
0.129398
6.25198e-23
4.81108e-21
3.51405e-19
2.39495e-17
1.5141e-15
8.81841e-14
4.69287e-12
2.2594e-10
9.72157e-09
3.68088e-07
1.20194e-05
0.000329346
0.0072818
0.122246
1.39996
8.48665
8.48666
1.40029
0.129528
6.25202e-23
4.81111e-21
3.51408e-19
2.39498e-17
1.51413e-15
8.81867e-14
4.6931e-12
2.25958e-10
9.72285e-09
3.68169e-07
1.20238e-05
0.00032954
0.00728842
0.122402
1.40189
8.48874
8.48876
1.40222
0.129691
6.25218e-23
4.81128e-21
3.51425e-19
2.39514e-17
1.51427e-15
8.8198e-14
4.69395e-12
2.26016e-10
9.72642e-09
3.6836e-07
1.20324e-05
0.000329861
0.00729754
0.12258
1.40372
8.49074
8.49075
1.40405
0.129878
6.25324e-23
4.81227e-21
3.51513e-19
2.39587e-17
1.51484e-15
8.82394e-14
4.69668e-12
2.26179e-10
9.73506e-09
3.68759e-07
1.20481e-05
0.00033036
0.00730972
0.122783
1.40551
8.49273
8.49274
1.40584
0.130093
6.25848e-23
4.81673e-21
3.51875e-19
2.39861e-17
1.51677e-15
8.83639e-14
4.70402e-12
2.26569e-10
9.75339e-09
3.69508e-07
1.20739e-05
0.000331084
0.00732522
0.12301
1.40728
8.4947
8.49472
1.40761
0.130335
6.27681e-23
4.83127e-21
3.52968e-19
2.40626e-17
1.52171e-15
8.86573e-14
4.71983e-12
2.27332e-10
9.786e-09
3.70714e-07
1.21115e-05
0.000332031
0.00734341
0.123249
1.40895
8.4966
8.49661
1.40929
0.130592
6.31092e-23
4.85692e-21
3.54791e-19
2.4183e-17
1.52905e-15
8.90661e-14
4.74048e-12
2.28266e-10
9.82318e-09
3.71993e-07
1.21485e-05
0.000332897
0.0073588
0.123435
1.41017
8.49798
8.498
1.4105
0.130794
6.31742e-23
4.86177e-21
3.55133e-19
2.42054e-17
1.5304e-15
8.91409e-14
4.74422e-12
2.28433e-10
9.82978e-09
3.72218e-07
1.21549e-05
0.000333045
0.0073614
0.123467
1.41037
8.49821
8.49823
1.4107
0.130828
6.31807e-23
4.86225e-21
3.55167e-19
2.42076e-17
1.53053e-15
8.91481e-14
4.74458e-12
2.28449e-10
9.83041e-09
3.72239e-07
1.21555e-05
0.000333059
0.00736164
0.123469
1.41039
8.49823
8.49825
1.41072
0.130831
6.31811e-23
4.86228e-21
3.55169e-19
2.42077e-17
1.53054e-15
8.91486e-14
4.7446e-12
2.2845e-10
9.83045e-09
3.7224e-07
1.21556e-05
0.00033306
0.00736166
0.12347
1.41039
8.49824
8.49825
1.41072
0.130831
6.31811e-23
4.86228e-21
3.55169e-19
2.42077e-17
1.53054e-15
8.91486e-14
4.7446e-12
2.2845e-10
9.83045e-09
3.7224e-07
1.21556e-05
0.00033306
0.00736166
0.12347
1.41039
8.49823
8.49825
1.41072
0.130831
6.31818e-23
4.86233e-21
3.55172e-19
2.42079e-17
1.53055e-15
8.91489e-14
4.74461e-12
2.2845e-10
9.83045e-09
3.7224e-07
1.21556e-05
0.00033306
0.00736165
0.123469
1.41039
8.49822
8.49823
1.41072
0.130831
6.31974e-23
4.86332e-21
3.55231e-19
2.42111e-17
1.53071e-15
8.91555e-14
4.74485e-12
2.28457e-10
9.83054e-09
3.72238e-07
1.21553e-05
0.00033305
0.00736138
0.123464
1.41033
8.49786
8.49787
1.41066
0.130825
6.3494e-23
4.88239e-21
3.56374e-19
2.42734e-17
1.53374e-15
8.92849e-14
4.74947e-12
2.28584e-10
9.83243e-09
3.72195e-07
1.21508e-05
0.00033286
0.00735609
0.123364
1.40912
8.49055
8.49056
1.40944
0.130711
6.77556e-23
5.15779e-21
3.72964e-19
2.51819e-17
1.57828e-15
9.11955e-14
4.81837e-12
2.30497e-10
9.86186e-09
3.71593e-07
1.20846e-05
0.000330026
0.00727671
0.121848
1.3908
8.37915
8.37914
1.39101
0.128987
1.08911e-22
7.83083e-21
5.34817e-19
3.40929e-17
2.01766e-15
1.10161e-13
5.50744e-12
2.49844e-10
1.01691e-08
3.66027e-07
1.14309e-05
0.000301694
0.00647655
0.106474
1.204
7.23794
7.23776
1.20302
0.111482
3.11363e-22
2.10452e-20
1.33897e-18
7.85978e-17
4.22427e-15
2.05992e-13
9.015e-12
3.49395e-10
1.17968e-08
3.3994e-07
8.14881e-06
0.000157496
0.00237147
0.0271069
0.234015
1.28934
1.28826
0.226857
0.0210786
3.52379e-22
2.37106e-20
1.50044e-18
8.7492e-17
4.66302e-15
2.24938e-13
9.70367e-12
3.6874e-10
1.21043e-08
3.3439e-07
7.49565e-06
0.000129171
0.00157111
0.0117025
0.0452349
0.146126
0.144875
0.0368924
0.00354284
3.5661e-22
2.39843e-20
1.51694e-18
8.83967e-17
4.70742e-15
2.26845e-13
9.77247e-12
3.70653e-10
1.21338e-08
3.33791e-07
7.42937e-06
0.000126325
0.00149063
0.0101234
0.024983
0.0327268
0.0314582
0.0165242
0.00175297
3.56903e-22
2.40032e-20
1.51808e-18
8.84586e-17
4.71044e-15
2.26973e-13
9.77708e-12
3.70779e-10
1.21356e-08
3.3374e-07
7.42418e-06
0.000126088
0.0014828
0.00992744
0.0218712
0.0234204
0.0221506
0.0134046
0.00154062
3.56919e-22
2.40042e-20
1.51814e-18
8.84617e-17
4.71058e-15
2.26979e-13
9.77725e-12
3.7078e-10
1.21353e-08
3.33705e-07
7.42188e-06
0.000125969
0.00147806
0.00979604
0.0199289
0.0210544
0.0197845
0.0114618
0.00140406
3.56918e-22
2.40042e-20
1.51813e-18
8.84613e-17
4.71054e-15
2.26976e-13
9.77695e-12
3.70757e-10
1.21337e-08
3.33608e-07
7.4168e-06
0.000125752
0.00147092
0.00963452
0.0180044
0.018964
0.0176941
0.00953704
0.00123538
3.56897e-22
2.40027e-20
1.51803e-18
8.84546e-17
4.71012e-15
2.2695e-13
9.77539e-12
3.70667e-10
1.21288e-08
3.3337e-07
7.40665e-06
0.000125393
0.00146114
0.00945106
0.0161799
0.0169661
0.0156962
0.0077126
0.00104257
3.5652e-22
2.39773e-20
1.51641e-18
8.83586e-17
4.70485e-15
2.26682e-13
9.76286e-12
3.70128e-10
1.21076e-08
3.32613e-07
7.38269e-06
0.000124744
0.0014471
0.00923548
0.0143801
0.0149714
0.0137027
0.00591955
0.00082148
3.51266e-22
2.36255e-20
1.49424e-18
8.70698e-17
4.63623e-15
2.23366e-13
9.61902e-12
3.64598e-10
1.19222e-08
3.27306e-07
7.25641e-06
0.000122339
0.0014124
0.0088916
0.012494
0.0128715
0.0116196
0.00414414
0.000572884
3.01073e-22
2.02587e-20
1.28184e-18
7.47226e-17
3.98019e-15
1.91818e-13
8.26232e-12
3.13212e-10
1.02415e-08
2.81076e-07
6.22657e-06
0.000104795
0.00120505
0.00749727
0.00954084
0.00970225
0.00862183
0.00233148
0.000301813
5.53861e-23
3.71312e-21
2.34077e-19
1.3594e-17
7.21349e-16
3.46298e-14
1.48578e-12
5.60985e-11
1.82685e-09
4.99292e-08
1.10134e-06
1.84541e-05
0.000211214
0.00130695
0.00164093
0.00166546
0.0014759
0.000380452
4.86163e-05
5.52885e-24
3.69182e-22
2.31807e-20
1.34078e-18
7.08553e-17
3.38741e-15
1.44723e-13
5.44092e-12
1.76414e-10
4.80026e-09
1.0541e-07
1.75818e-06
2.00291e-05
0.000123336
0.000153914
0.000156072
0.000138092
3.4812e-05
4.42422e-06
3.77169e-25
2.50834e-23
1.56862e-21
9.03592e-20
4.75539e-18
2.26389e-16
9.63101e-15
3.60519e-13
1.16382e-11
3.15272e-10
6.89197e-09
1.1443e-07
1.29757e-06
7.95316e-06
9.886e-06
1.00185e-05
8.8537e-06
2.19979e-06
2.78709e-07
1.95408e-26
1.29432e-24
8.06168e-23
4.62495e-21
2.42396e-19
1.14914e-17
4.86795e-16
1.8144e-14
5.8317e-13
1.5728e-11
3.42285e-10
5.65743e-09
6.38595e-08
3.89652e-07
4.82902e-07
4.89141e-07
4.31821e-07
1.06111e-07
1.3417e-08
8.16713e-28
5.38803e-26
3.34256e-24
1.90987e-22
9.96873e-21
4.70635e-19
1.98531e-17
7.3682e-16
2.35801e-14
6.33176e-13
1.37187e-11
2.25736e-10
2.53661e-09
1.54095e-08
1.90502e-08
1.92884e-08
1.7012e-08
4.1423e-09
5.23021e-10
2.86327e-29
1.88148e-27
1.1626e-25
6.61629e-24
3.43944e-22
1.61713e-20
6.79327e-19
2.51061e-17
8.00033e-16
2.13898e-14
4.61418e-13
7.55896e-12
8.45646e-11
5.115e-10
6.30999e-10
6.38661e-10
5.62787e-10
1.35955e-10
1.71479e-11
8.65282e-31
5.66358e-29
3.48596e-27
1.97598e-25
1.02309e-23
4.79075e-22
2.00423e-20
7.37628e-19
2.34062e-17
6.23121e-16
1.33839e-14
2.18301e-13
2.43156e-12
1.46453e-11
1.80326e-11
1.82455e-11
1.60644e-11
3.85353e-12
4.85654e-13
2.29979e-32
1.49946e-30
9.1936e-29
5.19092e-27
2.67701e-25
1.24852e-23
5.20201e-22
1.90665e-20
6.02493e-19
1.5972e-17
3.416e-16
5.54782e-15
6.15291e-14
3.69049e-13
4.53623e-13
4.58843e-13
4.03663e-13
9.62167e-14
1.21186e-14
5.45952e-34
3.54596e-32
2.16582e-30
1.21814e-28
6.25749e-27
2.90684e-25
1.20629e-23
4.40334e-22
1.38572e-20
3.65825e-19
7.79115e-18
1.25998e-16
1.39148e-15
8.31189e-15
1.02007e-14
1.03151e-14
9.06759e-15
2.14881e-15
2.70522e-16
1.14875e-35
7.43354e-34
4.52355e-32
2.53472e-30
1.29714e-28
6.00261e-27
2.48132e-25
9.02207e-24
2.82793e-22
7.43564e-21
1.57717e-19
2.54015e-18
2.79378e-17
1.66226e-16
2.03709e-16
2.05941e-16
1.809e-16
4.26444e-17
5.36692e-18
)
;

boundaryField
{
    top
    {
        type            zeroGradient;
    }
    left
    {
        type            fixedValue;
        value           uniform 0;
    }
    bottom
    {
        type            zeroGradient;
    }
    right
    {
        type            zeroGradient;
    }
    frontAndBack
    {
        type            empty;
    }
}


// ************************************************************************* //
