/*--------------------------------*- C++ -*----------------------------------*\
| =========                 |                                                 |
| \\      /  F ield         | OpenFOAM: The Open Source CFD Toolbox           |
|  \\    /   O peration     | Version:  v1806                                 |
|   \\  /    A nd           | Web:      www.OpenFOAM.com                      |
|    \\/     M anipulation  |                                                 |
\*---------------------------------------------------------------------------*/
FoamFile
{
    version     2.0;
    format      ascii;
    class       volScalarField;
    location    "0.04";
    object      T;
}
// * * * * * * * * * * * * * * * * * * * * * * * * * * * * * * * * * * * * * //

dimensions      [0 0 0 1 0 0 0];


internalField   nonuniform List<scalar> 
1881
(
1.38253e-120
4.76107e-119
1.57477e-117
4.84902e-116
1.38189e-114
3.62e-113
8.64655e-112
1.8648e-110
3.58805e-109
6.06684e-108
8.83979e-107
1.0811e-105
1.06923e-104
8.08225e-104
4.24525e-103
1.27937e-102
1.27383e-102
4.1768e-103
8.84353e-104
1.75265e-118
6.04883e-117
2.00498e-115
6.18688e-114
1.76692e-112
4.63856e-111
1.11032e-109
2.39976e-108
4.62727e-107
7.84078e-106
1.1449e-104
1.40319e-103
1.39072e-102
1.05343e-101
5.54424e-101
1.67374e-100
1.66673e-100
5.4579e-101
1.15356e-101
2.20571e-116
7.62899e-115
2.53411e-113
7.83626e-112
2.24273e-110
5.9002e-109
1.41532e-107
3.0655e-106
5.9236e-105
1.00588e-103
1.4719e-102
1.80779e-101
1.7955e-100
1.36285e-99
7.18699e-99
2.17341e-98
2.1646e-98
7.07896e-99
1.49355e-99
2.73384e-114
9.47624e-113
3.15439e-111
9.77513e-110
2.8036e-108
7.39147e-107
1.77684e-105
3.85674e-104
7.46848e-103
1.27092e-101
1.86371e-100
2.29389e-99
2.2831e-98
1.73655e-97
9.17595e-97
2.77969e-96
2.76879e-96
9.04293e-97
1.90455e-97
3.33608e-112
1.1589e-110
3.86589e-109
1.20055e-107
3.45065e-106
9.11683e-105
2.19629e-103
4.7774e-102
9.27116e-101
1.58107e-99
2.32348e-98
2.86587e-97
2.85842e-96
2.17867e-95
1.15351e-94
3.50042e-94
3.48715e-94
1.1374e-94
2.39124e-95
4.00685e-110
1.39495e-108
4.66325e-107
1.45127e-105
4.1802e-104
1.1068e-102
2.67206e-101
5.82478e-100
1.1328e-98
1.93599e-97
2.85115e-96
3.52424e-95
3.52254e-94
2.69045e-93
1.42733e-92
4.33886e-92
4.32298e-92
1.40813e-92
2.95513e-93
4.73511e-108
1.6521e-106
5.5347e-105
1.72616e-103
4.98266e-102
1.3221e-100
3.19871e-99
6.98784e-98
1.36192e-96
2.33257e-95
3.44258e-94
4.2644e-93
4.27139e-92
3.26923e-91
1.73786e-90
5.29204e-90
5.27335e-90
1.71539e-90
3.59346e-91
5.50392e-106
1.92455e-104
6.46125e-103
2.01946e-101
5.84182e-100
1.55341e-98
3.76643e-97
8.24583e-96
1.61057e-94
2.76438e-93
4.08867e-92
5.07559e-91
5.09474e-90
3.90757e-89
2.08136e-88
6.34913e-88
6.32751e-88
2.05551e-88
4.29818e-89
6.29036e-104
2.20438e-102
7.41661e-101
2.32305e-99
6.73449e-98
1.79465e-96
4.36074e-95
9.56757e-94
1.87277e-92
3.22137e-91
4.77487e-90
5.94018e-89
5.97531e-88
4.59258e-87
2.45115e-86
7.49029e-86
7.46571e-86
2.42194e-86
5.0552e-87
7.06614e-102
2.4817e-100
8.36761e-99
2.62657e-97
7.63084e-96
2.03791e-94
4.96255e-93
1.09115e-91
2.14047e-90
3.68982e-89
5.48106e-88
6.83342e-87
6.88854e-86
5.30562e-85
2.83744e-84
8.68593e-84
8.65849e-84
2.80503e-84
5.84409e-85
7.79879e-100
2.74506e-98
9.27556e-97
2.91786e-95
8.49546e-94
2.27373e-92
5.54882e-91
1.22271e-89
2.40375e-88
4.15267e-87
6.18198e-86
7.72393e-85
7.80292e-84
6.02256e-83
3.22738e-82
9.897e-82
9.86693e-82
3.19208e-82
6.63827e-83
8.45356e-98
2.98212e-96
1.00983e-94
3.18357e-93
9.28916e-92
2.49156e-90
6.09362e-89
1.34568e-87
2.65126e-86
4.59023e-85
6.84822e-84
8.57487e-83
8.68118e-82
6.71459e-81
3.60553e-80
1.10761e-79
1.10438e-79
3.56783e-80
7.40595e-81
8.99581e-96
3.18044e-94
1.07932e-92
3.41003e-91
9.97155e-90
2.68041e-88
6.56978e-87
1.454e-85
2.87092e-84
4.98137e-83
7.44795e-82
9.34605e-81
9.4823e-80
7.34977e-79
3.95462e-78
1.21701e-77
1.21359e-77
3.91515e-78
8.11178e-79
9.39384e-94
3.32854e-92
1.13204e-90
3.58434e-89
1.05041e-87
2.82972e-86
6.9509e-85
1.54171e-83
3.05076e-82
5.30499e-81
7.94911e-80
9.99663e-79
1.01643e-77
7.89508e-77
4.2567e-76
1.31229e-75
1.30876e-75
4.2162e-76
8.71917e-77
9.62174e-92
3.41688e-90
1.16461e-88
3.69552e-87
1.08536e-85
2.93025e-84
7.21359e-83
1.60348e-81
3.17994e-80
5.54174e-79
8.32203e-78
1.04884e-76
1.06874e-75
8.31907e-75
4.49447e-74
1.38806e-73
1.38448e-73
4.45376e-74
9.19312e-75
9.66205e-90
3.43885e-88
1.17466e-86
3.73553e-85
1.09951e-83
2.97496e-82
7.33971e-81
1.6351e-79
3.24976e-78
5.67585e-77
8.54212e-76
1.07893e-74
1.10178e-73
8.5946e-73
4.65283e-72
1.43953e-71
1.43598e-71
4.6128e-72
9.50335e-73
9.50775e-88
3.3915e-86
1.16101e-84
3.70022e-83
1.0915e-81
2.95979e-80
7.31832e-79
1.63392e-77
3.25457e-76
5.69676e-75
8.59242e-74
1.08766e-72
1.11311e-71
8.70154e-71
4.7204e-70
1.46304e-69
1.4596e-69
4.68188e-70
9.6273e-71
9.16341e-86
3.276e-84
1.12393e-82
3.58989e-81
1.06128e-79
2.88417e-78
7.14707e-77
1.5992e-75
3.19245e-74
5.60034e-73
8.4656e-72
1.07396e-70
1.10148e-69
8.62909e-69
4.69074e-68
1.45646e-67
1.45318e-67
4.6545e-68
9.55267e-69
8.6452e-84
3.09767e-82
1.06508e-80
3.4094e-79
1.01015e-77
2.75125e-76
6.83275e-75
1.53225e-73
3.06555e-72
5.38963e-71
8.16506e-70
1.03811e-68
1.06704e-67
8.37723e-67
4.56322e-66
1.41941e-65
1.41636e-65
4.52992e-66
9.27907e-67
7.97972e-82
2.86566e-80
9.87473e-79
3.16794e-77
9.40675e-76
2.5677e-74
6.39102e-73
1.43637e-71
2.88009e-70
5.07477e-69
7.70508e-68
9.81789e-67
1.01136e-65
7.95716e-65
4.34337e-64
1.35345e-63
1.35069e-63
4.31349e-64
8.81861e-65
7.20177e-80
2.59211e-78
8.95181e-77
2.8782e-75
8.56531e-74
2.3432e-72
5.84516e-71
1.3166e-69
2.64581e-68
4.67232e-67
7.10976e-66
9.07935e-65
9.3733e-64
7.39064e-63
4.0425e-62
1.26198e-61
1.25952e-61
4.01636e-62
8.19513e-63
6.35127e-78
2.29116e-76
7.92997e-75
2.5553e-73
7.62123e-72
2.08956e-70
5.22402e-69
1.17931e-67
2.37519e-66
4.20376e-65
6.41097e-64
8.20512e-63
8.48938e-62
6.70818e-61
3.67684e-60
1.1499e-59
1.14778e-59
3.65454e-60
7.44223e-61
5.46978e-76
1.97764e-74
6.85998e-73
2.21541e-71
6.6222e-70
1.81969e-68
4.55947e-67
1.03158e-65
2.08229e-64
3.69359e-63
5.64549e-62
7.24145e-61
7.50884e-60
5.94623e-59
3.266e-58
1.02327e-57
1.02148e-57
3.24748e-58
6.60022e-59
4.59692e-74
1.66582e-72
5.79119e-71
1.87441e-69
5.61535e-68
1.54646e-66
3.88351e-65
8.80612e-64
1.78152e-62
3.16715e-61
4.85166e-60
6.23705e-59
6.48163e-58
5.14395e-57
2.83124e-56
8.88669e-56
8.87196e-56
2.81628e-56
5.71248e-57
3.76738e-72
1.36832e-70
4.76751e-69
1.54652e-67
4.64339e-66
1.28164e-64
3.22569e-63
7.33085e-62
1.48639e-60
2.6484e-59
4.06607e-58
5.23879e-57
5.45628e-56
4.33964e-55
2.39355e-54
7.52658e-54
7.51479e-54
2.3818e-54
4.82155e-55
3.00853e-70
1.0952e-68
3.82439e-67
1.24335e-65
3.74149e-64
1.03502e-62
2.61082e-61
5.94678e-60
1.20847e-58
2.15804e-57
3.32065e-56
4.28795e-55
4.47587e-54
3.56765e-53
1.97188e-52
6.21198e-52
6.2028e-52
1.96293e-52
3.96563e-53
2.33916e-68
8.53471e-67
2.98695e-65
9.73262e-64
2.9353e-62
8.13822e-61
2.05747e-59
4.69694e-58
9.56633e-57
1.71216e-55
2.64049e-54
3.41729e-53
3.575e-52
2.85581e-51
1.58176e-50
4.99213e-50
4.98519e-50
1.57515e-50
3.17578e-51
1.76923e-66
6.47002e-65
2.26943e-63
7.41123e-62
2.24021e-60
6.22502e-59
1.57733e-57
3.60896e-56
7.367e-55
1.3215e-53
2.04261e-52
2.64946e-51
2.77791e-50
2.22394e-49
1.23438e-48
3.90295e-48
3.89785e-48
1.22966e-48
2.47416e-49
1.30056e-64
4.76703e-63
1.67583e-61
5.48505e-60
1.66171e-58
4.62791e-57
1.17529e-55
2.69517e-54
5.51412e-53
9.91368e-52
1.53579e-50
1.99655e-49
2.09802e-48
1.68333e-47
9.36295e-47
2.96589e-46
2.96226e-46
9.3303e-47
1.87348e-47
9.28281e-63
3.4103e-61
1.20158e-59
3.94166e-58
1.19683e-56
3.34074e-55
8.50325e-54
1.95437e-52
4.00756e-51
7.22142e-50
1.12125e-48
1.46092e-47
1.53861e-46
1.23721e-45
6.89617e-45
2.18853e-44
2.18602e-44
6.87441e-45
1.37751e-45
6.4266e-61
2.36643e-59
8.35662e-58
2.74749e-56
8.36125e-55
2.33918e-53
5.96747e-52
1.37467e-50
2.82524e-49
5.1025e-48
7.94046e-47
1.03694e-45
1.09453e-44
8.8207e-44
4.92705e-43
1.56652e-42
1.56485e-42
4.9131e-43
9.82455e-44
4.3108e-59
1.59101e-57
5.63104e-56
1.85556e-54
5.6597e-53
1.58698e-51
4.05773e-50
9.36866e-49
1.92985e-47
3.49332e-46
5.44862e-45
7.13144e-44
7.54446e-43
6.09346e-42
3.41093e-41
1.08649e-40
1.08541e-40
3.40233e-41
6.78934e-42
2.79831e-57
1.03518e-55
3.67208e-54
1.21278e-52
3.70754e-51
1.04196e-49
2.67025e-48
6.17923e-47
1.27576e-45
2.31459e-44
3.61836e-43
4.74666e-42
5.03289e-41
4.07396e-40
2.28534e-39
7.29312e-39
7.28641e-39
2.28028e-39
4.54073e-40
1.75568e-55
6.50985e-54
2.31448e-52
7.66143e-51
2.34747e-49
6.61232e-48
1.69842e-46
3.9393e-45
8.15168e-44
1.48233e-42
2.32259e-41
3.05376e-40
3.24523e-39
2.63275e-38
1.48004e-37
4.73201e-37
4.72799e-37
1.47719e-37
2.93533e-38
1.06321e-53
3.95139e-52
1.40805e-50
4.67158e-49
1.43464e-47
4.05031e-46
1.04273e-44
2.42404e-43
5.02762e-42
9.16333e-41
1.43904e-39
1.89639e-38
2.01986e-37
1.64231e-36
9.25231e-36
2.96369e-35
2.96137e-35
9.23713e-36
1.8316e-36
6.20544e-52
2.31161e-50
8.25605e-49
2.74541e-47
8.45044e-46
2.39121e-44
6.17015e-43
1.43767e-41
2.98868e-40
5.45967e-39
8.59375e-38
1.13508e-36
1.21174e-35
9.87448e-35
5.57508e-34
1.78912e-33
1.78784e-33
5.56746e-34
1.10157e-34
3.48514e-50
1.3013e-48
4.65826e-47
1.55257e-45
4.7898e-44
1.35847e-42
3.51339e-41
8.2052e-40
1.70965e-38
3.13035e-37
4.93863e-36
6.53804e-35
6.9955e-34
5.71362e-33
3.23311e-32
1.03941e-31
1.03873e-31
3.22954e-32
6.3756e-33
1.88025e-48
7.03695e-47
2.52479e-45
8.43426e-44
2.60801e-42
7.41381e-41
1.92183e-39
4.49862e-38
9.39502e-37
1.72419e-35
2.72646e-34
3.61777e-33
3.87987e-32
3.17647e-31
1.80204e-30
5.80202e-30
5.79857e-30
1.80051e-30
3.54528e-31
9.72612e-47
3.6486e-45
1.31208e-43
4.3932e-42
1.36157e-40
3.87948e-39
1.00797e-37
2.36491e-36
4.95036e-35
9.10601e-34
1.44327e-32
1.91957e-31
2.06365e-30
1.69437e-29
9.65186e-29
3.1077e-28
3.10604e-28
9.64589e-29
1.89133e-29
4.814e-45
1.81014e-43
6.52445e-42
2.18958e-40
6.80179e-39
1.94248e-37
5.05868e-36
1.18962e-34
2.49595e-33
4.60188e-32
7.31092e-31
9.74736e-30
1.05097e-28
8.67324e-28
4.99985e-27
1.59837e-26
1.59761e-26
4.99777e-27
9.67882e-28
2.27476e-43
8.57359e-42
3.09738e-40
1.04187e-38
3.24398e-37
9.28574e-36
2.42383e-34
5.71321e-33
1.20149e-31
2.22042e-30
3.53612e-29
4.72809e-28
5.12399e-27
4.29612e-26
2.60791e-25
7.9895e-25
7.98615e-25
2.60703e-25
4.78445e-26
1.02366e-41
3.86727e-40
1.40035e-38
4.72128e-37
1.47343e-35
4.22741e-34
1.10604e-32
2.61311e-31
5.50825e-30
1.02041e-28
1.62954e-27
2.18898e-26
2.40818e-25
2.15839e-24
1.63848e-23
4.16193e-23
4.16052e-23
1.63743e-23
2.3799e-24
4.37492e-40
1.6567e-38
6.01287e-37
2.03193e-35
6.35603e-34
1.82785e-32
4.79343e-31
1.13515e-29
2.39853e-28
4.4551e-27
7.14346e-26
9.71471e-25
1.13436e-23
1.32709e-22
1.8116e-21
2.96352e-21
2.96291e-21
1.80926e-21
1.41225e-22
1.77033e-38
6.71981e-37
2.44455e-35
8.28007e-34
2.59609e-32
7.48318e-31
1.96702e-29
4.66923e-28
9.89111e-27
1.84367e-25
2.98385e-24
4.24414e-23
6.23955e-22
1.39895e-20
3.5314e-19
4.09299e-19
4.09263e-19
3.5262e-19
1.40621e-20
6.75961e-37
2.57189e-35
9.37784e-34
3.18381e-32
1.00057e-30
2.89086e-29
7.61684e-28
1.81253e-26
3.85147e-25
7.22778e-24
1.20562e-22
2.02874e-21
5.40283e-20
2.41411e-18
8.34589e-17
8.74274e-17
8.74238e-17
8.33521e-17
2.35836e-18
2.42602e-35
9.25245e-34
3.38156e-32
1.15073e-30
3.62481e-29
1.04976e-27
2.77261e-26
6.61618e-25
1.41282e-23
2.70135e-22
5.01253e-21
1.35077e-19
7.49764e-18
4.84524e-16
1.98116e-14
2.03329e-14
2.03324e-14
1.97918e-14
4.71861e-16
8.14829e-34
3.11503e-32
1.14113e-30
3.89229e-29
1.22896e-27
3.56761e-26
9.44709e-25
2.26273e-23
4.88511e-22
9.91002e-21
2.5196e-19
1.39113e-17
1.21677e-15
9.49087e-14
4.42024e-12
4.51305e-12
4.51297e-12
4.41709e-12
9.29192e-14
2.54833e-32
9.76531e-31
3.58568e-29
1.22591e-27
3.87988e-26
1.12909e-24
2.99888e-23
7.22902e-22
1.60686e-20
3.86951e-19
1.77455e-17
1.71505e-15
1.88034e-13
1.6817e-11
8.86503e-10
9.02806e-10
9.02797e-10
8.86099e-10
1.65953e-11
7.37785e-31
2.83399e-29
1.04304e-27
3.57445e-26
1.13399e-24
3.30878e-23
8.82372e-22
2.15514e-20
5.16043e-19
1.78837e-17
1.50956e-15
1.95964e-13
2.48426e-11
2.51946e-09
1.52037e-07
1.54498e-07
1.54497e-07
1.52001e-07
2.50708e-09
1.96395e-29
7.56201e-28
2.7897e-26
9.58287e-25
3.04765e-23
8.91876e-22
2.39263e-20
5.99722e-19
1.66661e-17
9.26462e-16
1.14785e-13
1.74398e-11
2.49134e-09
2.88359e-07
2.08035e-05
2.10876e-05
2.10876e-05
2.08017e-05
2.89037e-07
4.76808e-28
1.84031e-26
6.80506e-25
2.34318e-23
7.4709e-22
2.19354e-20
5.93155e-19
1.54335e-17
5.13835e-16
3.97635e-14
5.73074e-12
9.38518e-10
1.47703e-07
2.00314e-05
0.00201928
0.00203916
0.00203916
0.00201927
2.01756e-05
1.04553e-26
4.04504e-25
1.49929e-23
5.17485e-22
1.6541e-20
4.87201e-19
1.3256e-17
3.51312e-16
1.20178e-14
8.39424e-13
9.17957e-11
1.01518e-08
9.72376e-07
7.39826e-05
0.00396525
0.00403828
0.00403828
0.00396526
7.49516e-05
2.04598e-25
7.9347e-24
2.94792e-22
1.01989e-20
3.26771e-19
9.64473e-18
2.62112e-16
6.74642e-15
1.91191e-13
8.43035e-12
5.92614e-10
4.54577e-08
3.04543e-06
0.000160261
0.00587974
0.0060376
0.0060376
0.00587978
0.000163303
3.51971e-24
1.36828e-22
5.09539e-21
1.76695e-19
5.67365e-18
1.67681e-16
4.53992e-15
1.13112e-13
2.71215e-12
7.35324e-11
2.83121e-09
1.42416e-07
7.00169e-06
0.000278619
0.00777596
0.00805976
0.00805976
0.00777609
0.000285617
5.2203e-23
2.03423e-21
7.59303e-20
2.63914e-18
8.49261e-17
2.51377e-15
6.79665e-14
1.66913e-12
3.73259e-11
7.85807e-10
1.73682e-08
4.69617e-07
1.49768e-05
0.000445056
0.00978891
0.0104081
0.0104081
0.00978937
0.000460026
6.50318e-22
2.54017e-20
9.50354e-19
3.3108e-17
1.06777e-15
3.16661e-14
8.56835e-13
2.09683e-11
4.59939e-10
8.99137e-09
1.57946e-07
2.60876e-06
4.43173e-05
0.000795083
0.0126528
0.0158488
0.0158489
0.0126553
0.000839365
6.55892e-21
2.56798e-19
9.6297e-18
3.36246e-16
1.08689e-14
3.23027e-13
8.75648e-12
2.14437e-10
4.69027e-09
9.04051e-08
1.51293e-06
2.16822e-05
0.000264614
0.00277813
0.0249924
0.053061
0.0530623
0.0250137
0.00304257
5.06755e-20
1.98864e-18
7.47408e-17
2.61565e-15
8.47391e-14
2.52406e-12
6.85663e-11
1.68222e-09
3.68335e-08
7.09174e-07
1.17826e-05
0.000164864
0.00188076
0.0167244
0.108086
0.327339
0.32735
0.108251
0.0186046
2.73709e-19
1.07645e-17
4.05435e-16
1.42191e-14
4.61641e-13
1.37799e-11
3.75121e-10
9.22206e-09
2.023e-07
3.90046e-06
6.48216e-05
0.000904629
0.0102199
0.0884433
0.534342
1.75344
1.75351
0.535249
0.0986628
8.67887e-19
3.41936e-17
1.29013e-15
4.53263e-14
1.47417e-12
4.40813e-11
1.20211e-09
2.96046e-08
6.50529e-07
1.25627e-05
0.000209065
0.00292001
0.0329725
0.284365
1.70046
5.66841
5.66861
1.70338
0.317337
1.09068e-18
4.29612e-17
1.62057e-15
5.69224e-14
1.85089e-12
5.53335e-11
1.50862e-09
3.71447e-08
8.16039e-07
1.57557e-05
0.000262145
0.0036605
0.0413199
0.356128
2.12667
7.09451
7.09476
2.13033
0.397448
1.1347e-18
4.46901e-17
1.6856e-15
5.92002e-14
1.92475e-12
5.75361e-11
1.56853e-09
3.86169e-08
8.48333e-07
1.63786e-05
0.000272505
0.00380517
0.0429525
0.370162
2.20968
7.36877
7.36903
2.21348
0.413115
1.14061e-18
4.49224e-17
1.69434e-15
5.95068e-14
1.93473e-12
5.78348e-11
1.57671e-09
3.88198e-08
8.5284e-07
1.64669e-05
0.000274003
0.00382651
0.0431974
0.372278
2.22189
7.40596
7.40621
2.22571
0.415476
1.14129e-18
4.495e-17
1.69542e-15
5.95466e-14
1.9361e-12
5.78789e-11
1.57801e-09
3.88552e-08
8.53701e-07
1.64854e-05
0.000274345
0.00383173
0.0432596
0.372807
2.22458
7.41137
7.41163
2.22841
0.416067
1.14156e-18
4.49621e-17
1.69596e-15
5.95687e-14
1.93694e-12
5.79087e-11
1.57897e-09
3.88827e-08
8.54399e-07
1.65008e-05
0.00027463
0.00383602
0.0433091
0.373201
2.22634
7.41365
7.41391
2.23018
0.41651
1.14205e-18
4.49843e-17
1.69691e-15
5.96066e-14
1.93834e-12
5.79555e-11
1.5804e-09
3.89215e-08
8.55335e-07
1.65202e-05
0.00027497
0.00384084
0.0433612
0.373591
2.22797
7.41563
7.41589
2.23181
0.416952
1.14312e-18
4.50298e-17
1.69875e-15
5.96761e-14
1.94075e-12
5.80323e-11
1.58261e-09
3.89784e-08
8.56626e-07
1.65456e-05
0.000275388
0.00384642
0.0434181
0.373992
2.22957
7.41757
7.41783
2.23342
0.41741
1.14525e-18
4.51162e-17
1.70209e-15
5.97959e-14
1.94471e-12
5.81519e-11
1.58588e-09
3.90584e-08
8.58347e-07
1.65776e-05
0.000275888
0.00385275
0.0434793
0.374402
2.23114
7.41947
7.41973
2.23499
0.417882
1.14877e-18
4.52534e-17
1.7072e-15
5.9972e-14
1.9503e-12
5.8314e-11
1.59013e-09
3.9158e-08
8.60402e-07
1.66141e-05
0.000276434
0.00385936
0.0435405
0.374795
2.23257
7.42124
7.4215
2.23643
0.418336
1.15252e-18
4.53958e-17
1.71236e-15
6.01451e-14
1.95565e-12
5.84647e-11
1.59396e-09
3.92453e-08
8.62147e-07
1.66442e-05
0.000276871
0.00386447
0.0435863
0.375079
2.23316
7.42206
7.42232
2.23703
0.418665
1.15375e-18
4.54422e-17
1.71403e-15
6.02008e-14
1.95736e-12
5.85124e-11
1.59517e-09
3.92725e-08
8.62686e-07
1.66534e-05
0.000277003
0.00386601
0.0435997
0.375136
2.23148
7.42042
7.42068
2.23534
0.418736
1.15398e-18
4.54508e-17
1.71434e-15
6.0211e-14
1.95767e-12
5.8521e-11
1.59539e-09
3.92773e-08
8.62782e-07
1.66551e-05
0.000277026
0.00386627
0.043601
0.37509
2.22959
7.41848
7.41874
2.23345
0.418691
1.15401e-18
4.54519e-17
1.71438e-15
6.02123e-14
1.95771e-12
5.85221e-11
1.59541e-09
3.92779e-08
8.62794e-07
1.66553e-05
0.000277028
0.00386626
0.0435989
0.374999
2.22769
7.41649
7.41675
2.23155
0.418598
1.15402e-18
4.54521e-17
1.71438e-15
6.02124e-14
1.95771e-12
5.85222e-11
1.59541e-09
3.92779e-08
8.62793e-07
1.66552e-05
0.000277026
0.00386615
0.0435946
0.374875
2.2258
7.41447
7.41473
2.22966
0.41847
1.15404e-18
4.54526e-17
1.71439e-15
6.02123e-14
1.95769e-12
5.85214e-11
1.59539e-09
3.9277e-08
8.62769e-07
1.66546e-05
0.000277013
0.00386581
0.0435862
0.374703
2.22379
7.41212
7.41238
2.22766
0.418289
1.15434e-18
4.54598e-17
1.7145e-15
6.0211e-14
1.9575e-12
5.85115e-11
1.59502e-09
3.92658e-08
8.62479e-07
1.66482e-05
0.000276892
0.00386382
0.0435573
0.374351
2.22094
7.40669
7.40694
2.2248
0.417904
1.15735e-18
4.55317e-17
1.71563e-15
6.01995e-14
1.9556e-12
5.84137e-11
1.59135e-09
3.91535e-08
8.59591e-07
1.65855e-05
0.000275745
0.00384651
0.0433471
0.3724
2.20865
7.36952
7.36977
2.21245
0.415697
1.18012e-18
4.6081e-17
1.72445e-15
6.01233e-14
1.94161e-12
5.76823e-11
1.56372e-09
3.83052e-08
8.37722e-07
1.61097e-05
0.000267084
0.00371714
0.0418132
0.358735
2.12591
7.0956
7.09577
2.1293
0.400145
1.29678e-18
4.89175e-17
1.77098e-15
5.97869e-14
1.87162e-12
5.39766e-11
1.4229e-09
3.39627e-08
7.25416e-07
1.36602e-05
0.000222414
0.00304951
0.0339061
0.288507
1.70151
5.67134
5.67111
1.70274
0.320162
1.6113e-18
5.66189e-17
1.89967e-15
5.90111e-14
1.68704e-12
4.4086e-11
1.04489e-09
2.22604e-08
4.21808e-07
7.02039e-06
0.000101039
0.00123171
0.0123397
0.0966898
0.540476
1.76145
1.76011
0.535807
0.101703
1.7279e-18
5.94547e-17
1.94621e-15
5.8676e-14
1.6171e-12
4.03812e-11
9.04069e-10
1.79168e-08
3.09445e-07
4.56905e-06
5.63254e-05
0.000563335
0.00442426
0.0264179
0.116116
0.337203
0.335465
0.109294
0.021668
1.75063e-18
6.0003e-17
1.95501e-15
5.85985e-14
1.60304e-12
3.96465e-11
8.76302e-10
1.70632e-08
2.87407e-07
4.08882e-06
4.7569e-05
0.000432424
0.00287365
0.0126658
0.0334673
0.063297
0.061482
0.0262302
0.00601143
1.7536e-18
6.00729e-17
1.95603e-15
5.85822e-14
1.60093e-12
3.95401e-11
8.72313e-10
1.69404e-08
2.84218e-07
4.0186e-06
4.62719e-05
0.000412769
0.0026385
0.0105835
0.0213079
0.0261563
0.024331
0.0140141
0.00364811
1.75379e-18
6.00748e-17
1.95589e-15
5.85699e-14
1.60029e-12
3.95133e-11
8.71367e-10
1.69115e-08
2.83452e-07
4.00121e-06
4.59397e-05
0.000407599
0.00257631
0.0100542
0.0186208
0.0207464
0.0189199
0.0113182
0.00305213
1.75349e-18
6.00609e-17
1.95528e-15
5.85449e-14
1.59934e-12
3.94802e-11
8.70319e-10
1.68817e-08
2.82704e-07
3.98492e-06
4.5641e-05
0.000403159
0.00252582
0.00965689
0.0168627
0.0184683
0.0166415
0.00955565
0.00260432
1.75201e-18
6.00048e-17
1.95321e-15
5.84729e-14
1.597e-12
3.94092e-11
8.68339e-10
1.68316e-08
2.8157e-07
3.96253e-06
4.52652e-05
0.00039801
0.00247161
0.00926053
0.0152292
0.0164882
0.0146619
0.0079206
0.00215821
1.74186e-18
5.96493e-17
1.94131e-15
5.81032e-14
1.5864e-12
3.91312e-11
8.61706e-10
1.66892e-08
2.78853e-07
3.91723e-06
4.46212e-05
0.000390477
0.00240302
0.00881966
0.0135903
0.0145077
0.0126898
0.0063109
0.00169449
1.67258e-18
5.72721e-17
1.8637e-15
5.5769e-14
1.52223e-12
3.7533e-11
8.26035e-10
1.59852e-08
2.66774e-07
3.74094e-06
4.24961e-05
0.000370171
0.00225838
0.0081237
0.0116887
0.0122638
0.010513
0.00467345
0.00120734
1.32924e-18
4.55179e-17
1.48122e-15
4.43217e-14
1.20963e-12
2.98186e-11
6.56019e-10
1.2688e-08
2.11567e-07
2.96288e-06
3.35868e-05
0.000291518
0.00176635
0.00625061
0.00846436
0.00872701
0.00732868
0.00285771
0.00069003
4.17257e-19
1.42635e-17
4.63355e-16
1.38405e-14
3.77063e-13
9.27812e-12
2.03742e-10
3.933e-09
6.54503e-08
9.14663e-07
1.03447e-05
8.95514e-05
0.000540787
0.0019033
0.00253763
0.00260391
0.00217378
0.00081482
0.000192237
7.68349e-20
2.62106e-18
8.4972e-17
2.53289e-15
6.88607e-14
1.69083e-12
3.70504e-11
7.13665e-10
1.18502e-08
1.65232e-07
1.8644e-06
1.61e-05
9.69627e-05
0.000340099
0.000450414
0.000461198
0.000383945
0.000141408
3.30144e-05
9.88765e-21
3.36561e-19
1.08876e-17
3.23843e-16
8.78505e-15
2.15238e-13
4.70597e-12
9.04436e-11
1.49839e-09
2.08448e-08
2.34656e-07
2.02153e-06
1.21444e-05
4.24798e-05
5.60439e-05
5.73145e-05
4.76315e-05
1.73684e-05
4.03173e-06
9.74523e-22
3.30978e-20
1.06837e-18
3.17084e-17
8.58272e-16
2.09814e-14
4.57709e-13
8.77682e-12
1.45075e-10
2.01358e-09
2.26148e-08
1.94367e-07
1.16487e-06
4.06461e-06
5.34873e-06
5.46532e-06
4.53623e-06
1.64326e-06
3.80096e-07
7.77484e-23
2.6347e-21
8.48607e-20
2.51305e-18
6.78719e-17
1.6555e-15
3.60337e-14
6.89403e-13
1.13695e-11
1.57441e-10
1.76416e-09
1.51272e-08
9.04492e-08
3.14882e-07
4.13572e-07
4.22313e-07
3.50163e-07
1.26245e-07
2.91322e-08
5.20916e-24
1.76133e-22
5.66065e-21
1.67265e-19
4.50747e-18
1.097e-16
2.38237e-15
4.54771e-14
7.48294e-13
1.03385e-11
1.15579e-10
9.88785e-10
5.89869e-09
2.04902e-08
2.68713e-08
2.74247e-08
2.27195e-08
8.16111e-09
1.88013e-09
3.00862e-25
1.01502e-23
3.25503e-22
9.59714e-21
2.58054e-19
6.26638e-18
1.35784e-16
2.58617e-15
4.24574e-14
5.85262e-13
6.52805e-12
5.57204e-11
3.31658e-10
1.14963e-09
1.50574e-09
1.53606e-09
1.27153e-09
4.55393e-10
1.04786e-10
1.52739e-26
5.14154e-25
1.64525e-23
4.84028e-22
1.29863e-20
3.14652e-19
6.80294e-18
1.2928e-16
2.11763e-15
2.91249e-14
3.24126e-13
2.76035e-12
1.63936e-11
5.67077e-11
7.41923e-11
7.56559e-11
6.25823e-11
2.2358e-11
5.14011e-12
6.91876e-28
2.32389e-26
7.42019e-25
2.17827e-23
5.83142e-22
1.40982e-20
3.04138e-19
5.76684e-18
9.42509e-17
1.29338e-15
1.43614e-14
1.22032e-13
7.23152e-13
2.49641e-12
3.26296e-12
3.32614e-12
2.74954e-12
9.80205e-13
2.25205e-13
2.72483e-29
9.13299e-28
2.91017e-26
8.52539e-25
2.27757e-23
5.49478e-22
1.18287e-20
2.23812e-19
3.65008e-18
4.99818e-17
5.53798e-16
4.6957e-15
2.77681e-14
9.56752e-14
1.24948e-13
1.27326e-13
1.0519e-13
3.74328e-14
8.59641e-15
)
;

boundaryField
{
    top
    {
        type            zeroGradient;
    }
    left
    {
        type            fixedValue;
        value           uniform 0;
    }
    bottom
    {
        type            zeroGradient;
    }
    right
    {
        type            zeroGradient;
    }
    frontAndBack
    {
        type            empty;
    }
}


// ************************************************************************* //
