/*--------------------------------*- C++ -*----------------------------------*\
| =========                 |                                                 |
| \\      /  F ield         | OpenFOAM: The Open Source CFD Toolbox           |
|  \\    /   O peration     | Version:  v1806                                 |
|   \\  /    A nd           | Web:      www.OpenFOAM.com                      |
|    \\/     M anipulation  |                                                 |
\*---------------------------------------------------------------------------*/
FoamFile
{
    version     2.0;
    format      ascii;
    class       volScalarField;
    location    "0.04";
    object      T;
}
// * * * * * * * * * * * * * * * * * * * * * * * * * * * * * * * * * * * * * //

dimensions      [0 0 0 1 0 0 0];


internalField   nonuniform List<scalar> 
1881
(
-2.34996e-37
-3.13529e-37
-2.17624e-36
-6.39605e-35
-1.98433e-33
-5.63934e-32
-1.44798e-30
-3.32228e-29
-6.72071e-28
-1.17843e-26
-1.75169e-25
-2.14204e-24
-2.06508e-23
-1.47208e-22
-6.98388e-22
-1.81862e-21
-1.80513e-21
-6.82026e-22
-1.61611e-22
-8.37928e-37
-9.19178e-37
-3.29808e-36
-1.02284e-34
-3.82011e-33
-1.28733e-31
-3.87452e-30
-1.03535e-28
-2.43381e-27
-4.96687e-26
-8.64071e-25
-1.24914e-23
-1.44623e-22
-1.26676e-21
-7.61365e-21
-2.56647e-20
-2.56828e-20
-7.65086e-21
-1.42142e-21
2.4977e-36
3.40993e-36
2.01579e-35
5.29257e-34
1.51295e-32
3.9186e-31
8.99202e-30
1.78897e-28
2.98495e-27
3.93006e-26
3.50057e-25
7.00269e-25
-3.82239e-23
-7.10732e-22
-6.35247e-21
-2.73941e-20
-2.75736e-20
-6.59785e-21
-8.35181e-22
2.42045e-35
2.8194e-35
1.09231e-34
2.91099e-33
9.46265e-32
2.83664e-30
7.70364e-29
1.87637e-27
4.04965e-26
7.62696e-25
1.2288e-23
1.64879e-22
1.77389e-21
1.44465e-20
8.08148e-20
2.55204e-19
2.54923e-19
8.05921e-20
1.6101e-20
2.52224e-35
2.26094e-35
4.40706e-35
1.80238e-33
8.54563e-32
3.33703e-30
1.11335e-28
3.21531e-27
8.03927e-26
1.72659e-24
3.13773e-23
4.71325e-22
5.64759e-21
5.10361e-20
3.15549e-19
1.08935e-18
1.09075e-18
3.17934e-19
5.74e-20
-3.89625e-34
-4.59949e-34
-1.43281e-33
-3.15299e-32
-9.39601e-31
-2.5894e-29
-6.42938e-28
-1.42006e-26
-2.74733e-25
-4.56311e-24
-6.33168e-23
-7.05874e-22
-5.95153e-21
-3.41421e-20
-1.05787e-19
-7.11554e-20
-6.38643e-20
-9.64828e-20
-3.66476e-20
-1.6635e-33
-1.82326e-33
-4.93361e-33
-1.1536e-31
-3.8205e-30
-1.17252e-28
-3.25901e-27
-8.12325e-26
-1.79446e-24
-3.46085e-23
-5.71441e-22
-7.8667e-21
-8.69558e-20
-7.28747e-19
-4.20095e-18
-1.36547e-17
-1.36508e-17
-4.20322e-18
-8.14427e-19
2.27514e-33
2.93517e-33
5.92815e-33
4.56651e-32
1.55323e-31
-3.02544e-29
-1.7506e-27
-6.52306e-26
-1.90168e-24
-4.5369e-23
-8.91244e-22
-1.42284e-20
-1.79162e-19
-1.68769e-18
-1.0807e-17
-3.83603e-17
-3.8433e-17
-1.09205e-17
-1.90286e-18
3.76785e-32
4.20472e-32
8.83489e-32
1.51524e-30
4.5779e-29
1.30211e-27
3.35416e-26
7.73404e-25
1.57543e-23
2.7885e-22
4.19735e-21
5.21963e-20
5.14802e-19
3.78749e-18
1.87927e-17
5.19916e-17
5.17451e-17
1.85053e-17
4.18731e-18
7.18251e-32
7.33992e-32
1.69214e-31
3.88263e-30
1.32046e-28
4.15171e-27
1.18028e-25
3.00571e-24
6.77878e-23
1.33419e-21
2.24779e-20
3.15754e-19
3.56228e-18
3.04797e-17
1.79395e-16
5.94372e-16
5.94488e-16
1.79859e-16
3.41177e-17
-4.6367e-31
-5.28922e-31
-8.01615e-31
-6.20335e-30
-1.35746e-28
-2.72104e-27
-3.85161e-26
-8.01116e-26
1.69915e-23
6.8165e-22
1.70445e-20
3.14514e-19
4.36985e-18
4.42348e-17
2.99163e-16
1.10513e-15
1.1081e-15
3.03542e-16
5.00531e-17
-2.66311e-30
-2.86611e-30
-4.71256e-30
-6.17943e-29
-1.86603e-27
-5.41359e-26
-1.42589e-24
-3.36988e-23
-7.05701e-22
-1.28907e-20
-2.0125e-19
-2.61291e-18
-2.71457e-17
-2.12912e-16
-1.14387e-15
-3.47027e-15
-3.46328e-15
-1.1368e-15
-2.36838e-16
1.94383e-31
6.84854e-31
-1.20931e-30
-1.07993e-28
-3.93931e-27
-1.27359e-25
-3.70733e-24
-9.64594e-23
-2.21916e-21
-4.45042e-20
-7.63355e-19
-1.0911e-17
-1.25205e-16
-1.0893e-15
-6.51608e-15
-2.19037e-14
-2.19151e-14
-6.54207e-15
-1.2205e-15
4.66138e-29
5.11907e-29
6.6556e-29
3.65631e-28
8.47862e-27
2.08191e-25
4.48404e-24
8.10086e-23
1.13558e-21
9.59466e-21
-4.24622e-20
-3.35161e-18
-6.79618e-17
-8.32834e-16
-6.32809e-15
-2.51587e-14
-2.526e-14
-6.47014e-15
-9.49684e-16
1.34567e-28
1.39206e-28
1.98107e-28
2.17092e-27
6.55439e-26
1.92768e-24
5.15349e-23
1.2376e-21
2.63715e-20
4.90981e-19
7.82873e-18
1.04074e-16
1.1105e-15
8.97866e-15
4.992e-14
1.5691e-13
1.56744e-13
4.97913e-14
1.00133e-14
-3.86607e-28
-4.46677e-28
-4.68436e-28
2.1573e-27
1.02568e-25
3.43672e-24
1.02593e-22
2.72786e-21
6.39803e-20
1.30578e-18
2.27635e-17
3.30365e-16
3.84629e-15
3.39303e-14
2.05649e-13
6.99259e-13
6.99775e-13
2.06669e-13
3.80364e-14
-3.3629e-27
-3.60055e-27
-4.26128e-27
-1.62886e-26
-3.5672e-25
-9.27404e-24
-2.177e-22
-4.48606e-21
-7.92024e-20
-1.15469e-18
-1.30038e-17
-9.5805e-17
-1.32126e-16
6.76652e-15
8.45908e-14
4.1176e-13
4.14711e-13
8.85494e-14
8.05378e-15
-3.52023e-27
-3.22944e-27
-4.36633e-27
-6.38561e-26
-2.01621e-24
-5.99502e-23
-1.61873e-21
-3.92841e-20
-8.46556e-19
-1.59535e-17
-2.57755e-16
-3.47627e-15
-3.76843e-14
-3.10033e-13
-1.75652e-12
-5.62496e-12
-5.62164e-12
-1.75523e-12
-3.46205e-13
4.38259e-26
4.83203e-26
5.3088e-26
-2.28163e-27
-2.38152e-24
-8.39065e-23
-2.56642e-21
-6.95966e-20
-1.66013e-18
-3.43895e-17
-6.076e-16
-8.92732e-15
-1.05137e-13
-9.37535e-13
-5.73984e-12
-1.96872e-11
-1.97044e-11
-5.77175e-12
-1.05113e-12
1.82712e-25
1.90595e-25
2.10899e-25
5.96028e-25
1.17915e-23
3.1337e-22
7.61656e-21
1.64389e-19
3.0958e-18
4.97248e-17
6.59575e-16
6.87431e-15
5.15233e-14
2.24771e-13
1.01e-13
-3.24771e-12
-3.32267e-12
4.57517e-15
2.40252e-13
-1.57066e-25
-2.03749e-25
-2.27535e-25
1.32984e-24
5.46717e-23
1.64776e-21
4.47551e-20
1.09273e-18
2.37026e-17
4.49874e-16
7.32517e-15
9.96355e-14
1.09018e-12
9.06043e-12
5.18925e-11
1.67941e-10
1.67883e-10
5.19059e-11
1.0124e-11
-3.25803e-24
-3.50464e-24
-3.79945e-24
-2.76625e-24
5.12894e-23
1.94452e-21
6.04269e-20
1.65793e-18
3.99397e-17
8.34533e-16
1.48601e-14
2.19911e-13
2.60741e-12
2.34003e-11
1.44129e-10
4.96955e-10
4.97411e-10
1.44959e-10
2.62299e-11
-6.91765e-24
-6.90184e-24
-7.07723e-24
-1.68643e-23
-3.16994e-22
-8.5155e-21
-2.10115e-19
-4.62236e-18
-8.92462e-17
-1.48284e-15
-2.06483e-14
-2.32116e-13
-1.99012e-12
-1.1827e-11
-4.02782e-11
-4.76584e-11
-4.59795e-11
-3.8189e-11
-1.30072e-11
2.89121e-23
3.25568e-23
3.65203e-23
2.26691e-24
-1.29589e-21
-4.02211e-20
-1.09511e-18
-2.67886e-17
-5.82417e-16
-1.10849e-14
-1.81082e-13
-2.47239e-12
-2.71695e-11
-2.2691e-10
-1.30658e-09
-4.25107e-09
-4.25009e-09
-1.30753e-09
-2.53612e-10
1.82941e-22
1.92623e-22
2.03943e-22
1.83429e-22
-1.08123e-21
-4.5145e-20
-1.39885e-18
-3.82317e-17
-9.18436e-16
-1.91538e-14
-3.40646e-13
-5.0379e-12
-5.97235e-11
-5.36129e-10
-3.30418e-09
-1.1402e-08
-1.14119e-08
-3.32245e-09
-6.00643e-10
9.51123e-23
6.96431e-23
3.74222e-23
2.09949e-22
6.74626e-21
1.86788e-19
4.62463e-18
1.02053e-16
1.97883e-15
3.30774e-14
4.64614e-13
5.29131e-12
4.6327e-11
2.86002e-10
1.06187e-09
1.70298e-09
1.66961e-09
1.02092e-09
3.16147e-10
-2.33339e-21
-2.53688e-21
-2.7844e-21
-2.21158e-21
2.5766e-20
8.67224e-19
2.36147e-17
5.76431e-16
1.25098e-14
2.37768e-13
3.88048e-12
5.29539e-11
5.81863e-10
4.8611e-09
2.80116e-08
9.12312e-08
9.12122e-08
2.80343e-08
5.43336e-09
-7.76931e-21
-7.96205e-21
-8.13813e-21
-7.45119e-21
2.36515e-20
1.06467e-18
3.22222e-17
8.62884e-16
2.03903e-14
4.19533e-13
7.37818e-12
1.08099e-10
1.27143e-09
1.13383e-08
6.94987e-08
2.38839e-07
2.39014e-07
6.98393e-08
1.26937e-08
1.07982e-20
1.3039e-20
1.60546e-20
1.57997e-20
-9.41539e-20
-3.16825e-18
-7.80468e-17
-1.69695e-15
-3.22965e-14
-5.27064e-13
-7.166e-12
-7.78137e-11
-6.30455e-10
-3.34926e-09
-8.18267e-09
6.62341e-09
7.20857e-09
-7.4496e-09
-3.69446e-09
1.34317e-19
1.42747e-19
1.53088e-19
1.47925e-19
-3.75101e-19
-1.61592e-17
-4.40172e-16
-1.06808e-14
-2.3045e-13
-4.3561e-12
-7.07278e-11
-9.60496e-10
-1.05061e-08
-8.73989e-08
-5.01671e-07
-1.6286e-06
-1.62817e-06
-5.01963e-07
-9.76812e-08
2.17481e-19
2.09988e-19
1.96765e-19
1.59018e-19
-5.99634e-19
-2.42338e-17
-7.07251e-16
-1.84068e-14
-4.24595e-13
-8.55706e-12
-1.47809e-10
-2.1318e-09
-2.47297e-08
-2.17873e-07
-1.32152e-06
-4.50373e-06
-4.50616e-06
-1.32682e-06
-2.43747e-07
-1.17689e-18
-1.30467e-18
-1.47399e-18
-1.61458e-18
-4.36648e-19
3.51831e-17
8.63554e-16
1.76242e-14
3.06488e-13
4.37032e-12
4.72615e-11
3.10192e-10
-3.5653e-10
-3.5156e-08
-3.89321e-07
-1.82763e-06
-1.83646e-06
-4.01188e-07
-3.98222e-08
-5.88892e-18
-6.1169e-18
-6.38216e-18
-6.38426e-18
1.79503e-18
2.47793e-16
6.78681e-15
1.63068e-13
3.48251e-12
6.51635e-11
1.04741e-09
1.40817e-08
1.52484e-07
1.25579e-06
7.13712e-06
2.29638e-05
2.29546e-05
7.13725e-06
1.40342e-06
-4.28868e-19
5.98144e-19
2.04558e-18
4.16022e-18
2.12367e-17
4.92786e-16
1.36612e-14
3.45609e-13
7.77847e-12
1.53334e-10
2.59607e-09
3.67663e-08
4.1948e-07
3.6403e-06
2.17842e-05
7.34214e-05
7.34451e-05
2.18502e-05
4.07034e-06
7.20159e-17
7.73399e-17
8.41874e-17
9.12458e-17
9.26034e-17
-1.43244e-17
-1.19377e-15
1.63538e-14
1.40166e-12
4.68037e-11
1.09897e-09
1.9682e-08
2.69244e-07
2.70461e-06
1.82416e-05
6.7415e-05
6.75234e-05
1.84088e-05
3.02631e-06
1.86936e-16
1.87344e-16
1.86595e-16
1.8113e-16
7.57425e-17
-2.84012e-15
-7.88237e-14
-1.86335e-12
-3.90951e-11
-7.18207e-10
-1.13249e-08
-1.49221e-07
-1.5819e-06
-1.2739e-05
-7.07316e-05
-0.000222594
-0.000222433
-7.0645e-05
-1.42372e-05
-4.00415e-16
-4.63055e-16
-5.45982e-16
-6.45224e-16
-9.91611e-16
-8.522e-15
-2.11617e-13
-5.20968e-12
-1.1467e-10
-2.21394e-09
-3.67567e-08
-5.11013e-07
-5.72919e-06
-4.89064e-05
-0.000288241
-0.000959058
-0.000959156
-0.000288839
-5.46659e-05
-3.18214e-15
-3.33258e-15
-3.5177e-15
-3.70936e-15
-4.06048e-15
-9.93954e-15
-1.83093e-13
-4.85135e-12
-1.15848e-10
-2.40973e-09
-4.28371e-08
-6.34373e-07
-7.54206e-06
-6.79899e-05
-0.00042124
-0.00146178
-0.00146274
-0.000423146
-7.59841e-05
-2.94576e-15
-2.55842e-15
-2.0265e-15
-1.37537e-15
8.17138e-17
2.1173e-14
5.30249e-13
1.19473e-11
2.38595e-10
4.1467e-09
6.1363e-08
7.50908e-07
7.29241e-06
5.28356e-05
0.000258058
0.000702791
0.000700764
0.000255937
5.90992e-05
2.95302e-14
3.21275e-14
3.54217e-14
3.90278e-14
4.54969e-14
1.31264e-13
2.32567e-12
5.50841e-11
1.18569e-09
2.24119e-08
3.64428e-07
4.96372e-06
5.45386e-05
0.00045644
0.00263942
0.0086366
0.00863538
0.0026422
0.000510168
1.00531e-13
1.01755e-13
1.02933e-13
1.03659e-13
1.07926e-13
2.42411e-13
3.99829e-12
9.78108e-11
2.18112e-09
4.26975e-08
7.18866e-07
1.01364e-05
0.000115278
0.000998266
0.00596717
0.0201077
0.0201122
0.00598261
0.00111537
-1.05929e-13
-1.32831e-13
-1.67187e-13
-2.05184e-13
-2.45997e-13
-2.61553e-13
8.19394e-13
3.64809e-11
9.88326e-10
2.24504e-08
4.27806e-07
6.70549e-06
8.35985e-05
0.000784601
0.0050298
0.0179305
0.0179462
0.00505752
0.000875692
-1.33755e-12
-1.40726e-12
-1.49153e-12
-1.57707e-12
-1.67623e-12
-2.21129e-12
-1.40353e-11
-2.87056e-10
-5.92096e-09
-1.0759e-07
-1.67859e-06
-2.18832e-05
-0.000229498
-0.00182802
-0.0100389
-0.0312746
-0.031251
-0.0100258
-0.00204476
-1.6432e-12
-1.48073e-12
-1.26937e-12
-1.02112e-12
-7.75916e-13
-1.79062e-12
-3.76018e-11
-9.11796e-10
-1.97309e-08
-3.74705e-07
-6.12504e-06
-8.39233e-05
-0.000928223
-0.00782499
-0.0456002
-0.150324
-0.150314
-0.0456619
-0.00874437
1.12432e-11
1.23556e-11
1.37107e-11
1.5143e-11
1.65674e-11
1.60263e-11
-3.96836e-11
-1.45615e-09
-3.27006e-08
-6.36167e-07
-1.06456e-05
-0.000149306
-0.00169016
-0.0145791
-0.086871
-0.292055
-0.292098
-0.0870643
-0.0162836
4.01429e-11
4.04739e-11
4.07447e-11
4.07364e-11
4.03366e-11
3.83236e-11
2.36799e-13
-9.75689e-10
-2.37586e-08
-4.88364e-07
-8.59154e-06
-0.0001262
-0.00149116
-0.0133825
-0.0826674
-0.286409
-0.286537
-0.0829584
-0.014932
-4.56743e-11
-5.7749e-11
-7.24407e-11
-8.85138e-11
-1.05824e-10
-1.21598e-10
-6.60222e-11
1.62345e-09
3.58397e-08
6.32624e-07
9.49809e-06
0.000118447
0.00117973
0.00884441
0.0452444
0.130601
0.130397
0.045067
0.00991499
-5.28648e-10
-5.5562e-10
-5.86498e-10
-6.16716e-10
-6.45025e-10
-6.59936e-10
-3.72376e-10
7.04179e-09
1.64983e-07
3.10734e-06
5.01896e-05
0.000679539
0.00742895
0.0619235
0.357013
1.16607
1.16586
0.357327
0.0692102
-4.75194e-10
-3.86694e-10
-2.77447e-10
-1.51243e-10
-5.94633e-12
1.82263e-10
1.01624e-09
1.69223e-08
3.55385e-07
6.74795e-06
0.000110579
0.0015202
0.0168825
0.142997
0.837732
2.77616
2.77604
0.838926
0.15974
5.07443e-09
5.5588e-09
6.11918e-09
6.70273e-09
7.30459e-09
7.95635e-09
9.59149e-09
3.48304e-08
5.6932e-07
1.07308e-05
0.000176967
0.00245043
0.0274131
0.233907
1.38025
4.60359
4.60363
1.3825
0.261215
1.47907e-08
1.46799e-08
1.44756e-08
1.41181e-08
1.35825e-08
1.28936e-08
1.32393e-08
4.38911e-08
7.36179e-07
1.39926e-05
0.000231802
0.00322319
0.0362096
0.310263
1.83832
6.15374
6.15394
1.84149
0.34641
-3.08822e-08
-3.68088e-08
-4.37001e-08
-5.11423e-08
-5.91253e-08
-6.76006e-08
-7.51984e-08
-4.87167e-08
7.28893e-07
1.58068e-05
0.000264253
0.00368456
0.0414909
0.356349
2.11621
7.09836
7.09867
2.11993
0.397807
-2.29287e-07
-2.39445e-07
-2.50225e-07
-2.60264e-07
-2.69266e-07
-2.76942e-07
-2.81613e-07
-2.48434e-07
5.70315e-07
1.63125e-05
0.000275794
0.00385152
0.043417
0.373275
2.21896
7.44971
7.45005
2.22288
0.416669
-7.48353e-08
-2.46135e-08
3.49761e-08
1.02557e-07
1.78692e-07
2.63935e-07
3.60151e-07
5.02304e-07
1.43865e-06
1.73193e-05
0.000277203
0.00385743
0.0434789
0.373868
2.2229
7.46422
7.46455
2.22682
0.417322
2.52844e-06
2.74927e-06
2.99338e-06
3.24465e-06
3.50046e-06
3.75851e-06
4.01756e-06
4.30901e-06
5.372e-06
2.12443e-05
0.00027919
0.0038311
0.0431334
0.370818
2.20448
7.40154
7.40187
2.20835
0.413919
5.76376e-06
5.60026e-06
5.36715e-06
5.04607e-06
4.62777e-06
4.10519e-06
3.47364e-06
2.76217e-06
2.70654e-06
1.73018e-05
0.000273102
0.00381218
0.0429835
0.369557
2.19682
7.37528
7.3756
2.20068
0.412504
-1.85865e-05
-2.17754e-05
-2.52885e-05
-2.89913e-05
-3.28565e-05
-3.68593e-05
-4.09738e-05
-4.5142e-05
-4.85998e-05
-3.73177e-05
0.000215423
0.00375362
0.0429466
0.369724
2.19815
7.37989
7.38021
2.202
0.412681
-0.000105357
-0.000109344
-0.000112864
-0.000115641
-0.000117668
-0.000118947
-0.000119482
-0.000119243
-0.000117495
-0.000100226
0.000159406
0.0037075
0.0429371
0.369975
2.19985
7.38583
7.38618
2.2038
0.413108
4.46526e-05
7.19709e-05
9.99427e-05
0.000128249
0.000156891
0.000185861
0.00021515
0.000244782
0.000275488
0.000321271
0.00060889
0.00418337
0.0434267
0.370573
2.20008
7.38472
7.38528
2.20445
0.414331
0.00142149
0.00145408
0.00148914
0.00152424
0.00155936
0.00159448
0.00162961
0.00166478
0.00170072
0.00175143
0.00204343
0.00561835
0.0448203
0.371572
2.19888
7.37733
7.37787
2.20321
0.415239
0.00283106
0.0028602
0.00289383
0.00292756
0.00296124
0.00299488
0.00302847
0.00306205
0.00309635
0.00314537
0.00343538
0.00700421
0.0461518
0.372421
2.19695
7.36728
7.3678
2.20123
0.415972
0.00416712
0.0041924
0.00422395
0.00425574
0.0042875
0.00431922
0.00435089
0.00438255
0.00441494
0.00446206
0.0047504
0.00832031
0.0474941
0.373938
2.19921
7.37086
7.37136
2.20346
0.417476
0.00542725
0.00544901
0.00547858
0.00550862
0.00553864
0.00556862
0.00559857
0.00562851
0.0056592
0.00570473
0.00599308
0.00958552
0.0490295
0.377724
2.21542
7.42117
7.42167
2.21971
0.421583
0.00662118
0.0066399
0.00666781
0.00669645
0.0067251
0.00675373
0.00678233
0.00681094
0.00684032
0.00688471
0.00717531
0.0108189
0.050869
0.384765
2.25199
7.54121
7.54174
2.25645
0.429415
0.00776289
0.00777899
0.0078055
0.00783304
0.00786063
0.00788821
0.00791576
0.00794333
0.00797168
0.00801525
0.00830843
0.012006
0.052718
0.392493
2.29419
7.68387
7.68448
2.29891
0.43804
0.00885813
0.00887187
0.00889698
0.00892346
0.00895006
0.00897666
0.00900326
0.00902991
0.00905735
0.00909992
0.00939052
0.0130674
0.0536064
0.392377
2.29106
7.67929
7.67996
2.29584
0.437721
0.00988999
0.00990168
0.0099252
0.00995032
0.00997555
0.0100007
0.0100259
0.0100509
0.0100767
0.0101166
0.0103908
0.0138584
0.0520749
0.371578
2.16466
7.26376
7.26439
2.16885
0.413805
0.0107911
0.0107977
0.0108151
0.0108338
0.010852
0.0108697
0.0108868
0.0109034
0.01092
0.0109487
0.0111803
0.0141634
0.0469386
0.320336
1.85493
6.23028
6.23059
1.85747
0.355099
0.0112922
0.0112761
0.0112692
0.0112636
0.0112577
0.0112515
0.0112448
0.0112378
0.0112309
0.0112337
0.011394
0.0136445
0.0381812
0.240996
1.37618
4.62199
4.62167
1.37591
0.2642
0.0108108
0.0107847
0.0107647
0.0107459
0.0107271
0.010708
0.0106887
0.0106692
0.0106499
0.0106376
0.0107328
0.0121866
0.0275592
0.151304
0.835277
2.79613
2.79515
0.832027
0.161965
0.00993305
0.00990235
0.00987475
0.0098481
0.00982145
0.00979467
0.00976774
0.0097407
0.00971383
0.00969177
0.00973607
0.0105312
0.0182518
0.0755538
0.378153
1.24689
1.24534
0.372374
0.0757203
0.00878655
0.00875406
0.00872224
0.00869114
0.0086601
0.00862902
0.00859788
0.00856672
0.00853575
0.00850835
0.00852298
0.00892637
0.0120574
0.0292484
0.100256
0.302236
0.300335
0.0929418
0.0231032
0.00750867
0.00747696
0.00744429
0.00741214
0.00738009
0.00734807
0.00731606
0.00728408
0.00725235
0.00722379
0.00722884
0.00749387
0.00896627
0.0114577
-0.00326765
-0.0498997
-0.0519311
-0.0111773
0.00297862
0.0062229
0.00619349
0.00616208
0.00613099
0.00610002
0.00606909
0.0060382
0.00600736
0.0059768
0.00594949
0.00595621
0.00622433
0.00767757
0.00974405
-0.0082987
-0.0655239
-0.0675753
-0.0163187
0.00110573
0.0049948
0.00496807
0.00493856
0.0049092
0.00487992
0.00485069
0.00482151
0.00479238
0.00476354
0.00473809
0.00474897
0.00505082
0.00684641
0.0116857
0.00904986
-0.00390968
-0.00596074
0.00101906
0.00336388
0.00384082
0.00381671
0.00378926
0.00376175
0.00373432
0.00370695
0.00367963
0.00365238
0.00362542
0.0036019
0.00361523
0.00392867
0.00584932
0.0117983
0.015627
0.0214889
0.0194613
0.00767449
0.00370101
0.00277066
0.00274947
0.00272466
0.00269967
0.00267475
0.00264993
0.00262518
0.00260053
0.0025762
0.00255511
0.00256866
0.00286388
0.00466248
0.0101449
0.0129075
0.0160157
0.0141075
0.00540437
0.00249932
0.00181917
0.00180172
0.00178082
0.0017597
0.00173868
0.00171778
0.00169701
0.00167637
0.00165604
0.00163853
0.00165044
0.00190134
0.0034201
0.00793007
0.00914199
0.00843888
0.00680979
0.00271678
0.00136805
0.00104299
0.00103014
0.00101451
0.000998675
0.000982966
0.000967403
0.000951986
0.000936726
0.000921755
0.000908897
0.000917757
0.00110313
0.0022277
0.00557399
0.00644657
0.00583919
0.00463712
0.00169101
0.000721804
0.000489415
0.000481411
0.000471556
0.000461584
0.00045173
0.000442014
0.000432437
0.000423003
0.000413791
0.000405889
0.000411061
0.000522655
0.00120396
0.00325497
0.00392893
0.00398945
0.00326664
0.00106044
0.000333813
0.000163849
0.00015995
0.000155115
0.000150236
0.000145445
0.000140755
0.000136164
0.000131673
0.000127317
0.00012357
0.0001256
0.000174635
0.000476438
0.00138987
0.00169515
0.00174166
0.0014224
0.00042341
9.60755e-05
2.07801e-05
1.95414e-05
1.79983e-05
1.6454e-05
1.49568e-05
1.3511e-05
1.21159e-05
1.0771e-05
9.48299e-06
8.35913e-06
8.58618e-06
1.97228e-05
8.98643e-05
0.000302732
0.000359702
0.000328309
0.00025399
6.14594e-05
-5.42679e-07
-1.43636e-05
-1.4423e-05
-1.44971e-05
-1.45619e-05
-1.46122e-05
-1.46478e-05
-1.46692e-05
-1.4677e-05
-1.46738e-05
-1.4686e-05
-1.49917e-05
-1.77599e-05
-3.35848e-05
-8.03089e-05
-9.5979e-05
-9.78463e-05
-8.11118e-05
-3.02808e-05
-1.33288e-05
-9.18169e-06
-9.01154e-06
-8.7988e-06
-8.58117e-06
-8.36418e-06
-8.14848e-06
-7.93423e-06
-7.72172e-06
-7.5133e-06
-7.33984e-06
-7.53588e-06
-1.07712e-05
-3.03667e-05
-8.92958e-05
-0.000106109
-0.000100204
-7.94918e-05
-2.34987e-05
-5.24475e-06
-1.0397e-06
-9.65933e-07
-8.73858e-07
-7.81571e-07
-6.92008e-07
-6.05453e-07
-5.21891e-07
-4.41309e-07
-3.64144e-07
-2.97075e-07
-3.14264e-07
-1.01727e-06
-5.46205e-06
-1.91294e-05
-2.37479e-05
-2.47474e-05
-2.00746e-05
-4.91627e-06
-1.683e-08
1.05348e-06
1.0494e-06
1.04413e-06
1.03809e-06
1.03127e-06
1.02368e-06
1.01538e-06
1.00641e-06
9.97042e-07
9.90558e-07
1.02208e-06
1.37033e-06
3.4191e-06
9.5475e-06
1.14342e-05
1.12151e-05
9.05783e-06
2.86303e-06
8.27187e-07
3.49465e-07
3.37805e-07
3.23203e-07
3.08403e-07
2.9384e-07
2.79561e-07
2.65575e-07
2.51889e-07
2.38631e-07
2.27511e-07
2.37297e-07
4.1935e-07
1.53819e-06
4.95025e-06
6.07096e-06
6.2092e-06
5.03417e-06
1.35232e-06
1.58903e-07
-1.06015e-07
-1.06965e-07
-1.08122e-07
-1.09188e-07
-1.10105e-07
-1.10871e-07
-1.1149e-07
-1.11968e-07
-1.12336e-07
-1.12912e-07
-1.17102e-07
-1.51772e-07
-3.49755e-07
-9.4084e-07
-1.1583e-06
-1.24422e-06
-1.03709e-06
-3.39042e-07
-1.0783e-07
-5.30076e-08
-5.14501e-08
-4.94962e-08
-4.75086e-08
-4.55443e-08
-4.36101e-08
-4.17073e-08
-3.98379e-08
-3.80222e-08
-3.65349e-08
-3.8389e-08
-6.78991e-08
-2.47857e-07
-7.94279e-07
-9.52731e-07
-9.09982e-07
-7.20888e-07
-1.92625e-07
-2.22672e-08
1.54114e-08
1.55141e-08
1.56378e-08
1.57484e-08
1.58394e-08
1.59105e-08
1.59622e-08
1.59956e-08
1.60155e-08
1.60792e-08
1.68009e-08
2.30557e-08
5.90414e-08
1.66149e-07
1.97005e-07
1.86559e-07
1.48809e-07
4.6955e-08
1.35416e-08
5.66273e-09
5.45111e-09
5.18606e-09
4.91757e-09
4.65366e-09
4.39523e-09
4.1424e-09
3.89537e-09
3.65661e-09
3.46037e-09
3.68476e-09
7.39727e-09
3.01862e-08
9.98955e-08
1.2193e-07
1.22368e-07
9.8503e-08
2.5678e-08
2.23444e-09
-2.86173e-09
-2.84283e-09
-2.81856e-09
-2.79219e-09
-2.76408e-09
-2.73433e-09
-2.70303e-09
-2.67034e-09
-2.63735e-09
-2.6181e-09
-2.76546e-09
-4.30729e-09
-1.3419e-08
-4.095e-08
-4.96006e-08
-4.93908e-08
-3.98632e-08
-1.14307e-08
-2.19246e-09
-1.09103e-10
-8.7176e-11
-5.98433e-11
-3.25134e-11
-6.08429e-12
1.93552e-11
4.38102e-11
6.72881e-11
8.96979e-11
1.09549e-10
1.09852e-10
-5.03755e-11
-1.10384e-09
-4.39884e-09
-5.37827e-09
-5.26385e-09
-4.15919e-09
-8.55358e-10
1.82689e-10
3.88605e-10
3.8033e-10
3.69946e-10
3.59323e-10
3.48751e-10
3.38262e-10
3.27867e-10
3.1758e-10
3.07576e-10
3.00225e-10
3.21605e-10
5.82983e-10
2.15622e-09
6.94761e-09
8.42248e-09
8.32265e-09
6.67895e-09
1.79887e-09
2.27409e-10
-1.16318e-10
-1.16086e-10
-1.15779e-10
-1.15401e-10
-1.14944e-10
-1.14411e-10
-1.13803e-10
-1.13127e-10
-1.12433e-10
-1.12368e-10
-1.20017e-10
-1.92407e-10
-6.17013e-10
-1.90014e-09
-2.29756e-09
-2.27153e-09
-1.82868e-09
-5.20549e-10
-9.65868e-11
-1.77153e-12
-9.46469e-13
8.14657e-14
1.10889e-12
2.10201e-12
3.05759e-12
3.97593e-12
4.8575e-12
5.69987e-12
6.45936e-12
6.62859e-12
1.93754e-12
-3.01226e-11
-1.31866e-10
-1.62407e-10
-1.6088e-10
-1.27292e-10
-2.36193e-11
8.54228e-12
1.42288e-11
1.38367e-11
1.33474e-11
1.28514e-11
1.2363e-11
1.18835e-11
1.14132e-11
1.09525e-11
1.05084e-11
1.01822e-11
1.10961e-11
2.23922e-11
9.07231e-11
2.99797e-10
3.64042e-10
3.60206e-10
2.88955e-10
7.58384e-11
7.58502e-12
-7.46713e-12
-7.35677e-12
-7.21945e-12
-7.07933e-12
-6.93992e-12
-6.80156e-12
-6.66431e-12
-6.52842e-12
-6.39766e-12
-6.32411e-12
-6.88385e-12
-1.27564e-11
-4.775e-11
-1.54391e-10
-1.87246e-10
-1.85277e-10
-1.48842e-10
-4.01578e-11
-5.24648e-12
1.78501e-12
1.76849e-12
1.74811e-12
1.72723e-12
1.7063e-12
1.68535e-12
1.66439e-12
1.64348e-12
1.62354e-12
1.6172e-12
1.76415e-12
3.19789e-12
1.16793e-11
3.74818e-11
4.54404e-11
4.49648e-11
3.61433e-11
9.85131e-12
1.39708e-12
)
;

boundaryField
{
    top
    {
        type            zeroGradient;
    }
    left
    {
        type            fixedValue;
        value           uniform 0;
    }
    bottom
    {
        type            zeroGradient;
    }
    right
    {
        type            zeroGradient;
    }
    frontAndBack
    {
        type            empty;
    }
}


// ************************************************************************* //
