/*--------------------------------*- C++ -*----------------------------------*\
| =========                 |                                                 |
| \\      /  F ield         | OpenFOAM: The Open Source CFD Toolbox           |
|  \\    /   O peration     | Version:  v1806                                 |
|   \\  /    A nd           | Web:      www.OpenFOAM.com                      |
|    \\/     M anipulation  |                                                 |
\*---------------------------------------------------------------------------*/
FoamFile
{
    version     2.0;
    format      ascii;
    class       volScalarField;
    location    "0.01";
    object      T;
}
// * * * * * * * * * * * * * * * * * * * * * * * * * * * * * * * * * * * * * //

dimensions      [0 0 0 1 0 0 0];


internalField   nonuniform List<scalar> 
1881
(
7.16414e-68
-1.91536e-65
-3.02718e-63
-4.16677e-61
-5.09311e-59
-5.50912e-57
-5.22503e-55
-4.27772e-53
-2.9478e-51
-1.6369e-49
-6.68862e-48
-1.48609e-46
2.68591e-45
3.77014e-43
1.43126e-41
2.24489e-40
2.26071e-40
1.60562e-41
5.54958e-43
2.58349e-66
1.00552e-64
7.89381e-63
2.801e-61
-5.35047e-59
-1.50791e-56
-2.3759e-54
-2.86193e-52
-2.81266e-50
-2.28833e-48
-1.53134e-46
-8.2508e-45
-3.44478e-43
-1.04443e-41
-2.04132e-40
-1.95513e-39
-1.94538e-39
-1.93664e-40
-1.00238e-41
-3.38722e-66
1.6496e-63
2.30855e-61
2.85678e-59
3.14959e-57
3.05187e-55
2.54002e-53
1.74126e-51
8.93274e-50
2.32719e-48
-1.20475e-46
-2.02042e-44
-1.42048e-42
-6.23282e-41
-1.67316e-39
-2.17873e-38
-2.18542e-38
-1.74777e-39
-7.21895e-41
-3.40171e-64
1.11022e-63
6.00713e-61
1.20741e-58
1.89431e-56
2.4989e-54
2.83538e-52
2.77957e-50
2.34144e-48
1.67257e-46
9.91512e-45
4.71915e-43
1.71271e-41
4.34628e-40
6.51978e-39
3.76491e-38
3.67345e-38
5.52555e-39
3.66036e-40
-1.12065e-63
-1.03524e-61
-1.24284e-59
-1.31744e-57
-1.18834e-55
-8.43771e-54
-3.54434e-52
1.40196e-50
4.91036e-48
6.14486e-46
5.32809e-44
3.4835e-42
1.7166e-40
6.0955e-39
1.40531e-37
1.62083e-36
1.6212e-36
1.41053e-37
6.43639e-39
3.8564e-62
-5.38084e-61
-9.88355e-59
-1.41409e-56
-1.79445e-54
-2.02126e-52
-2.00914e-50
-1.7433e-48
-1.29842e-46
-8.09289e-45
-4.05379e-43
-1.51667e-41
-3.55256e-40
-1.55337e-39
1.86774e-37
4.54034e-36
4.59807e-36
2.50029e-37
4.07268e-39
3.59029e-61
4.11824e-60
3.16473e-58
1.66407e-56
-8.80267e-55
-4.04849e-52
-7.01728e-50
-8.86238e-48
-9.00525e-46
-7.54081e-44
-5.19144e-42
-2.88357e-40
-1.24662e-38
-3.94252e-37
-8.13249e-36
-8.37247e-35
-8.351e-35
-7.90404e-36
-3.92105e-37
-2.81218e-60
4.90937e-59
7.58842e-57
9.5147e-55
1.06838e-52
1.06373e-50
9.22857e-49
6.78022e-47
3.99963e-45
1.65878e-43
2.22751e-42
-3.20247e-40
-3.19761e-38
-1.59623e-36
-4.61857e-35
-6.34777e-34
-6.37273e-34
-4.89483e-35
-1.91768e-36
-6.13591e-59
-5.88979e-59
1.62119e-56
3.39251e-54
5.42582e-52
7.27498e-50
8.39136e-48
8.3768e-46
7.20674e-44
5.28061e-42
3.23146e-40
1.60313e-38
6.16135e-37
1.70468e-35
2.97199e-34
2.41382e-33
2.39163e-33
2.73148e-34
1.56617e-35
-2.58012e-59
-2.96912e-57
-3.70335e-55
-4.03633e-53
-3.81618e-51
-2.97998e-49
-1.68336e-47
-2.83196e-46
8.06856e-44
1.31926e-41
1.26135e-39
8.73287e-38
4.4914e-36
1.65541e-34
3.9566e-33
4.73503e-32
4.74004e-32
4.01404e-33
1.78059e-34
7.14207e-57
-4.27375e-57
-2.60332e-54
-3.7633e-52
-4.81423e-50
-5.48815e-48
-5.54627e-46
-4.92121e-44
-3.77878e-42
-2.45892e-40
-1.31471e-38
-5.50182e-37
-1.65236e-35
-2.90599e-34
-7.70532e-34
5.46399e-32
5.60298e-32
7.48434e-34
-1.6761e-34
4.57039e-56
1.60662e-55
8.91806e-54
5.67526e-52
-6.61326e-52
-7.50968e-48
-1.47904e-45
-1.96949e-43
-2.07007e-41
-1.78142e-39
-1.25814e-37
-7.17448e-36
-3.19258e-34
-1.04396e-32
-2.24182e-31
-2.42547e-30
-2.42271e-30
-2.21308e-31
-1.06346e-32
-5.39233e-55
3.6911e-55
1.79889e-52
2.29157e-50
2.60888e-48
2.65182e-46
2.37298e-44
1.82996e-42
1.17457e-40
5.86817e-39
1.89904e-37
2.51265e-37
-4.09768e-34
-2.65975e-32
-8.60601e-31
-1.26528e-29
-1.2713e-29
-9.26892e-31
-3.36362e-32
-8.22703e-54
-1.18417e-53
3.14538e-52
7.01799e-50
1.13448e-47
1.53691e-45
1.79339e-43
1.81471e-41
1.58677e-39
1.18583e-37
7.4359e-36
3.80477e-34
1.52278e-32
4.45493e-31
8.43617e-30
7.84197e-29
7.80559e-29
8.04316e-30
4.2926e-31
1.06404e-53
-3.70866e-53
-7.80266e-51
-8.73122e-49
-8.53395e-47
-7.0856e-45
-4.62741e-43
-1.81241e-41
5.45839e-40
1.86182e-37
2.057e-35
1.52609e-33
8.21484e-32
3.13973e-30
7.7541e-29
9.57781e-28
9.59311e-28
7.92555e-29
3.42204e-30
9.29314e-52
1.14336e-51
-4.82518e-50
-7.23701e-48
-9.28696e-46
-1.066e-43
-1.0893e-41
-9.82036e-40
-7.70839e-38
-5.1714e-36
-2.88849e-34
-1.29243e-32
-4.35913e-31
-9.94276e-30
-1.19876e-28
-2.22851e-28
-2.00224e-28
-9.51981e-29
-8.16143e-30
4.14125e-51
7.20496e-51
1.72604e-49
1.17427e-47
2.43535e-46
-9.99083e-44
-2.25224e-41
-3.14276e-39
-3.39695e-37
-2.98822e-35
-2.15369e-33
-1.25379e-31
-5.70596e-30
-1.91392e-28
-4.23411e-27
-4.74464e-26
-4.74329e-26
-4.22146e-27
-1.97987e-28
-7.04311e-50
-9.16967e-50
2.89571e-48
3.90231e-46
4.48095e-44
4.61679e-42
4.21895e-40
3.36036e-38
2.27276e-36
1.25011e-34
5.12533e-33
1.18961e-31
-1.58183e-30
-2.67554e-28
-1.05049e-26
-1.69115e-25
-1.7006e-25
-1.1543e-26
-3.69922e-28
-7.9151e-49
-1.13062e-48
3.63877e-48
1.07904e-45
1.73092e-43
2.34069e-41
2.7387e-39
2.78849e-37
2.46134e-35
1.86315e-33
1.18801e-31
6.21106e-30
2.55617e-28
7.75919e-27
1.54543e-25
1.54323e-24
1.53928e-24
1.50289e-25
7.68861e-27
2.47404e-48
3.67677e-48
-1.06489e-46
-1.29029e-44
-1.28724e-42
-1.10756e-40
-7.79361e-39
-3.87065e-37
-4.15483e-36
1.71535e-33
2.32041e-31
1.85563e-29
1.04357e-27
4.11958e-26
1.04594e-24
1.32557e-23
1.32807e-23
1.07372e-24
4.5239e-26
8.69941e-47
1.24788e-46
-5.05172e-46
-9.87841e-44
-1.26484e-41
-1.45201e-39
-1.49021e-37
-1.35516e-35
-1.07824e-33
-7.37735e-32
-4.23808e-30
-1.97581e-28
-7.10291e-27
-1.81111e-25
-2.79945e-24
-1.79651e-23
-1.77198e-23
-2.53227e-24
-1.64552e-25
2.29636e-46
2.77428e-46
2.21335e-45
1.41775e-43
3.36703e-42
-1.11349e-39
-2.58855e-37
-3.65542e-35
-3.98814e-33
-3.5416e-31
-2.5796e-29
-1.52018e-27
-7.0182e-26
-2.39442e-24
-5.40541e-23
-6.20331e-22
-6.20449e-22
-5.4203e-23
-2.49802e-24
-6.53514e-45
-9.70252e-45
2.07874e-44
4.55199e-42
5.2557e-40
5.44602e-38
5.03226e-36
4.08305e-34
2.84594e-32
1.6482e-30
7.48685e-29
2.34622e-27
2.8724e-26
-1.42589e-24
-8.27579e-23
-1.50509e-21
-1.51467e-21
-9.32583e-23
-2.39933e-24
-5.30088e-44
-7.16557e-44
-3.02606e-44
1.23485e-41
1.92252e-39
2.54881e-37
2.95141e-35
2.99228e-33
2.64212e-31
2.00864e-29
1.29125e-27
6.83393e-26
2.86069e-24
8.88504e-23
1.82514e-21
1.89963e-20
1.89681e-20
1.79494e-21
8.94891e-23
2.85724e-43
4.61223e-43
-3.28279e-43
-1.23671e-40
-1.25033e-38
-1.08844e-36
-7.86181e-35
-4.19721e-33
-9.06182e-32
1.20529e-29
1.91508e-27
1.60616e-25
9.27437e-24
3.73375e-22
9.64548e-21
1.24292e-19
1.24531e-19
9.91061e-21
4.10162e-22
5.759e-42
8.0577e-42
4.70446e-42
-9.24555e-40
-1.18484e-37
-1.34954e-35
-1.38013e-33
-1.25574e-31
-1.00386e-29
-6.93327e-28
-4.04371e-26
-1.92898e-24
-7.1808e-23
-1.93577e-21
-3.30321e-20
-2.63212e-19
-2.6147e-19
-3.11358e-20
-1.84033e-21
5.10911e-42
2.11066e-42
7.28994e-42
8.09341e-40
-6.51846e-39
-1.22283e-35
-2.36811e-33
-3.16519e-31
-3.36884e-29
-2.95552e-27
-2.14171e-25
-1.26168e-23
-5.84484e-22
-2.00776e-20
-4.57868e-19
-5.32509e-18
-5.32716e-18
-4.6025e-19
-2.1002e-20
-4.23968e-40
-6.09523e-40
-6.11004e-40
3.40625e-38
4.03182e-36
4.16558e-34
3.85068e-32
3.13958e-30
2.21243e-28
1.30814e-26
6.18539e-25
2.12935e-23
4.02577e-22
-3.7615e-21
-4.53001e-19
-9.26037e-18
-9.32151e-18
-5.20018e-19
-9.71675e-21
-2.38737e-39
-3.00346e-39
-3.07089e-39
1.00924e-37
1.52368e-35
1.9437e-33
2.19444e-31
2.18793e-29
1.91158e-27
1.44496e-25
9.27456e-24
4.92026e-22
2.07284e-20
6.50815e-19
1.35855e-17
1.44585e-16
1.4445e-16
1.34418e-17
6.61126e-19
2.01714e-38
3.05004e-38
4.03133e-38
-6.62935e-37
-7.20816e-35
-6.14841e-33
-4.29283e-31
-2.1165e-29
-2.15538e-28
9.54777e-26
1.28991e-23
1.03692e-21
5.8833e-20
2.35083e-18
6.0613e-17
7.825e-16
7.83841e-16
6.2094e-17
2.56047e-18
2.63906e-37
3.51227e-37
4.25425e-37
-5.31553e-36
-7.30579e-34
-8.19178e-32
-8.27583e-30
-7.46701e-28
-5.94046e-26
-4.09763e-24
-2.39617e-22
-1.15144e-20
-4.34487e-19
-1.19851e-17
-2.12738e-16
-1.8232e-15
-1.81526e-15
-2.04091e-16
-1.16493e-17
-2.13948e-37
-5.22221e-37
-1.05246e-36
-2.01596e-36
-5.24224e-34
-1.13125e-31
-1.68515e-29
-2.01743e-27
-2.02127e-25
-1.70817e-23
-1.20796e-21
-7.00284e-20
-3.21174e-18
-1.09742e-16
-2.49943e-15
-2.91361e-14
-2.91471e-14
-2.51194e-15
-1.14552e-16
-1.88716e-35
-2.58116e-35
-3.43083e-35
1.19338e-34
1.87982e-32
1.91947e-30
1.75094e-28
1.41e-26
9.81601e-25
5.728e-23
2.6628e-21
8.89572e-20
1.51632e-18
-2.62265e-17
-2.23553e-15
-4.38934e-14
-4.41296e-14
-2.49456e-15
-4.94029e-17
-6.90336e-35
-7.89175e-35
-8.13561e-35
5.18825e-34
8.12419e-32
9.85703e-30
1.07207e-27
1.03916e-25
8.88606e-24
6.60866e-22
4.19154e-20
2.20567e-18
9.24966e-17
2.90101e-15
6.07171e-14
6.50499e-13
6.50048e-13
6.02328e-14
2.95633e-15
9.09998e-34
1.29051e-33
1.83245e-33
3.88476e-34
-2.01604e-31
-1.55754e-29
-8.45714e-28
-9.9338e-27
4.75157e-24
7.45318e-22
7.1427e-20
5.03275e-18
2.66279e-16
1.0197e-14
2.55775e-13
3.2435e-12
3.24764e-12
2.60348e-13
1.09267e-14
8.20746e-33
1.03472e-32
1.28368e-32
-6.85611e-33
-2.72936e-30
-3.00266e-28
-2.96931e-26
-2.63003e-24
-2.05909e-22
-1.40068e-20
-8.09195e-19
-3.84735e-17
-1.43818e-15
-3.93349e-14
-6.92505e-13
-5.88245e-12
-5.86009e-12
-6.6811e-13
-3.85414e-14
-2.02588e-32
-3.33815e-32
-5.45348e-32
-1.11817e-31
-4.75715e-30
-6.6111e-28
-8.11457e-26
-8.66802e-24
-8.05128e-22
-6.44713e-20
-4.38032e-18
-2.46318e-16
-1.10354e-14
-3.70371e-13
-8.32335e-12
-9.61286e-11
-9.61501e-11
-8.34798e-12
-3.84552e-13
-5.66807e-31
-7.37837e-31
-9.6343e-31
-8.241e-31
4.51414e-29
4.5892e-27
4.02318e-25
3.0858e-23
2.0129e-21
1.06342e-19
4.09471e-18
7.65837e-17
-2.78266e-15
-2.8718e-13
-1.05986e-11
-1.68164e-10
-1.68676e-10
-1.11603e-11
-3.44292e-13
-1.18953e-30
-1.15675e-30
-9.23191e-31
1.60276e-30
2.6032e-28
2.98887e-26
3.113e-24
2.91053e-22
2.41403e-20
1.74911e-18
1.08474e-16
5.59831e-15
2.30855e-13
7.13587e-12
1.47498e-10
1.56388e-09
1.56282e-09
1.46344e-10
7.26731e-12
2.64713e-29
3.55172e-29
4.81276e-29
6.27104e-29
-1.67827e-30
5.49413e-27
2.04744e-24
3.23421e-22
3.74851e-20
3.48651e-18
2.65043e-16
1.63165e-14
7.89543e-13
2.83755e-11
6.79031e-10
8.31297e-09
8.31913e-09
6.85841e-10
2.98585e-11
1.70639e-28
2.03712e-28
2.40727e-28
2.3327e-28
-5.07317e-27
-5.67987e-25
-5.43046e-23
-4.64994e-21
-3.51728e-19
-2.30714e-17
-1.28027e-15
-5.80618e-14
-2.04446e-12
-5.14361e-11
-7.91898e-10
-5.15773e-09
-5.12226e-09
-7.53063e-10
-4.97881e-11
-6.9413e-28
-1.01134e-27
-1.48091e-27
-2.23812e-27
-1.92741e-26
-1.97987e-24
-2.15886e-22
-2.11178e-20
-1.83027e-18
-1.38556e-16
-8.98543e-15
-4.85821e-13
-2.10481e-11
-6.86326e-10
-1.50445e-08
-1.70121e-07
-1.7012e-07
-1.50447e-08
-7.07993e-10
-1.13267e-26
-1.40821e-26
-1.75757e-26
-2.13226e-26
1.42208e-26
3.47541e-24
2.51867e-22
1.35501e-20
3.2048e-19
-3.46423e-17
-5.80928e-15
-4.9768e-13
-2.92975e-11
-1.20528e-09
-3.19328e-08
-4.23584e-07
-4.24113e-07
-3.25145e-08
-1.29194e-09
-1.03611e-26
-6.02648e-27
2.30143e-27
1.87737e-26
4.38464e-25
4.4146e-23
4.38354e-21
3.92686e-19
3.12932e-17
2.1828e-15
1.30476e-13
6.4932e-12
2.58064e-10
7.6761e-09
1.52237e-07
1.54261e-06
1.54116e-06
1.5065e-07
7.7828e-09
4.94347e-25
6.32374e-25
8.15733e-25
1.04751e-24
1.99777e-24
8.9294e-23
1.01132e-20
1.03618e-18
9.3596e-17
7.36002e-15
4.94787e-13
2.77022e-11
1.24242e-09
4.19506e-08
9.52939e-07
1.11725e-05
1.11754e-05
9.56222e-07
4.35269e-08
2.35992e-24
2.67374e-24
2.98353e-24
3.21835e-24
-2.49048e-25
-3.57561e-22
-3.16729e-20
-2.44874e-18
-1.62677e-16
-8.92657e-15
-3.75494e-13
-9.88546e-12
8.66989e-12
1.43641e-08
6.25169e-07
1.05905e-05
1.06159e-05
6.53043e-07
1.71239e-08
-1.29046e-23
-1.7497e-23
-2.38876e-23
-3.22704e-23
-6.35189e-23
-2.39277e-21
-2.37227e-19
-2.17281e-17
-1.77548e-15
-1.27389e-13
-7.86222e-12
-4.05876e-10
-1.68314e-08
-5.26288e-07
-1.10772e-05
-0.000120457
-0.000120423
-1.10402e-05
-5.39419e-07
-1.48901e-22
-1.77705e-22
-2.12498e-22
-2.51963e-22
-3.15842e-22
-3.16593e-21
-3.43671e-19
-3.66469e-17
-3.42366e-15
-2.77187e-13
-1.91295e-11
-1.09747e-09
-5.03805e-08
-1.7402e-06
-4.04292e-05
-0.000484609
-0.000484778
-4.0616e-05
-1.80891e-06
-1.91442e-23
5.72466e-23
1.79331e-22
3.53044e-22
7.67741e-22
1.92972e-20
1.6975e-18
1.40088e-16
1.02016e-14
6.41774e-13
3.39096e-11
1.44468e-09
4.65208e-08
1.00593e-06
1.09199e-05
-1.61514e-06
-2.36096e-06
1.00989e-05
9.69373e-07
5.85371e-21
7.19059e-21
8.89163e-21
1.09188e-20
1.40735e-20
1.03601e-19
8.93999e-18
8.22264e-16
6.77172e-14
4.90623e-12
3.06403e-10
1.60417e-08
6.7636e-07
2.15629e-05
0.000464205
0.00517892
0.00517843
0.000463679
2.21762e-05
2.19654e-20
2.38052e-20
2.52919e-20
2.61557e-20
2.67587e-20
1.15786e-19
1.08425e-17
1.13736e-15
1.05157e-13
8.45661e-12
5.81316e-10
3.32926e-08
1.52853e-06
5.289e-05
0.00123271
0.0148415
0.0148458
0.00123748
5.48803e-05
-1.378e-19
-1.77783e-19
-2.30857e-19
-2.96177e-19
-3.80427e-19
-9.67138e-19
-4.65908e-17
-3.83796e-15
-2.83476e-13
-1.82025e-11
-9.90786e-10
-4.4143e-08
-1.52818e-06
-3.77666e-05
-0.00056811
-0.00353343
-0.00351973
-0.000552984
-3.76941e-05
-1.27388e-18
-1.46929e-18
-1.69589e-18
-1.94188e-18
-2.2242e-18
-4.72292e-18
-2.28861e-16
-2.06394e-14
-1.68587e-12
-1.21367e-10
-7.544e-09
-3.93773e-07
-1.65805e-05
-0.000528823
-0.0114099
-0.127809
-0.1278
-0.0114002
-0.000544009
2.45032e-19
8.76538e-19
1.80524e-18
3.03388e-18
4.59666e-18
3.30315e-18
-3.50811e-16
-3.49402e-14
-3.02957e-12
-2.30946e-10
-1.51781e-08
-8.36786e-07
-3.71902e-05
-0.00125155
-0.0284851
-0.336213
-0.336257
-0.028534
-0.00129308
4.29809e-17
5.10738e-17
6.10159e-17
7.24281e-17
8.54465e-17
1.03784e-16
4.29759e-16
2.31169e-14
1.41795e-12
6.86481e-11
2.15447e-09
-4.70538e-10
-4.92256e-06
-0.000319205
-0.010528
-0.159687
-0.159823
-0.0106786
-0.000340515
1.40916e-16
1.48565e-16
1.53697e-16
1.55145e-16
1.51889e-16
1.7085e-16
2.99756e-15
2.55997e-13
2.04111e-11
1.43586e-09
8.72805e-08
4.4583e-06
0.000183823
0.00574439
0.121506
1.33553
1.33536
0.121313
0.0059019
-8.30543e-16
-1.03575e-15
-1.29834e-15
-1.61037e-15
-1.97709e-15
-2.33475e-15
4.39201e-15
6.62833e-13
5.45644e-11
3.94692e-09
2.47054e-07
1.30162e-05
0.000554543
0.0179406
0.393644
4.49397
4.49388
0.393547
0.0184704
-6.95778e-15
-7.82018e-15
-8.79388e-15
-9.8227e-15
-1.08918e-14
-1.18745e-14
-1.58825e-15
1.04678e-12
8.78344e-11
6.42659e-09
4.06989e-07
2.17017e-05
0.000936085
0.0306717
0.681791
7.88547
7.8855
0.681826
0.031591
-3.77112e-17
2.60005e-15
6.31178e-15
1.10448e-14
1.69676e-14
2.44031e-14
4.64447e-14
1.27279e-12
1.02244e-10
7.50837e-09
4.77635e-07
2.55867e-05
0.00110891
0.0365118
0.815651
9.4805
9.48055
0.815715
0.0376067
1.87716e-13
2.17516e-13
2.53155e-13
2.93028e-13
3.37283e-13
3.86224e-13
4.52659e-13
1.70773e-12
1.01166e-10
7.39241e-09
4.70215e-07
2.5189e-05
0.00109169
0.0359454
0.803023
9.33415
9.33418
0.803064
0.0370215
6.21606e-13
6.5052e-13
6.72614e-13
6.84509e-13
6.83201e-13
6.65337e-13
6.39366e-13
1.74935e-12
9.9077e-11
7.24026e-09
4.60213e-07
2.46343e-05
0.0010668
0.0350971
0.783412
9.09849
9.09853
0.783454
0.0361483
-2.60895e-12
-3.2024e-12
-3.94111e-12
-4.79733e-12
-5.7816e-12
-6.9063e-12
-8.17177e-12
-8.43371e-12
8.81374e-11
7.28629e-09
4.64105e-07
2.48506e-05
0.00107649
0.0354267
0.79102
9.18978
9.18981
0.791063
0.0364877
-2.31713e-11
-2.55958e-11
-2.8301e-11
-3.11315e-11
-3.4058e-11
-3.70489e-11
-4.00522e-11
-4.18639e-11
5.3267e-11
7.23882e-09
4.63292e-07
2.48076e-05
0.00107456
0.0353611
0.789504
9.17157
9.1716
0.789546
0.0364201
-1.5497e-11
-1.0351e-11
-3.1771e-12
5.88992e-12
1.71088e-11
3.07779e-11
4.72327e-11
6.7977e-11
1.89096e-10
7.40594e-09
4.63597e-07
2.48137e-05
0.00107482
0.03537
0.789711
9.17406
9.17409
0.789753
0.0364294
4.5031e-10
5.13716e-10
5.88016e-10
6.69733e-10
7.59005e-10
8.56053e-10
9.61048e-10
1.07522e-09
1.29426e-09
8.61285e-09
4.64899e-07
2.48145e-05
0.0010748
0.0353691
0.789688
9.17379
9.17382
0.789731
0.0364284
1.73463e-09
1.82126e-09
1.90239e-09
1.97066e-09
2.02222e-09
2.05288e-09
2.05791e-09
2.03319e-09
2.06851e-09
9.15215e-09
4.65146e-07
2.48144e-05
0.0010748
0.0353692
0.789691
9.17381
9.17385
0.789733
0.0364285
-3.41972e-09
-4.3158e-09
-5.40835e-09
-6.657e-09
-8.0733e-09
-9.67107e-09
-1.14644e-08
-1.34662e-08
-1.55948e-08
-1.08691e-08
4.42559e-07
2.4789e-05
0.00107478
0.0353696
0.789702
9.17394
9.17398
0.789745
0.036429
-4.27427e-08
-4.67554e-08
-5.12089e-08
-5.58691e-08
-6.07058e-08
-6.56898e-08
-7.07839e-08
-7.59415e-08
-8.10122e-08
-7.89372e-08
3.72203e-07
2.47165e-05
0.00107471
0.0353704
0.789731
9.17431
9.17434
0.789774
0.0364302
-6.87753e-08
-6.52832e-08
-5.99962e-08
-5.28775e-08
-4.36793e-08
-3.21312e-08
-1.79477e-08
-8.29799e-10
1.96257e-08
5.07279e-08
5.34674e-07
2.49158e-05
0.0010749
0.0353684
0.78968
9.17383
9.17386
0.789724
0.0364279
5.1165e-07
5.84108e-07
6.67575e-07
7.587e-07
8.57544e-07
9.64199e-07
1.07867e-06
1.20085e-06
1.33064e-06
1.47473e-06
2.07481e-06
2.65785e-05
0.00107648
0.0353546
0.789234
9.16865
9.16868
0.789273
0.0364087
2.59345e-06
2.73711e-06
2.88265e-06
3.02009e-06
3.14608e-06
3.25732e-06
3.35039e-06
3.42175e-06
3.46788e-06
3.4922e-06
3.9317e-06
2.82428e-05
0.00107773
0.0353333
0.788476
9.159
9.15902
0.788498
0.036374
-3.45905e-07
-1.02731e-06
-1.8416e-06
-2.76857e-06
-3.8112e-06
-4.97223e-06
-6.25355e-06
-7.65627e-06
-9.18061e-06
-1.08162e-05
-1.21725e-05
1.01493e-05
0.00105872
0.0353828
0.790232
9.17733
9.17734
0.790255
0.0364313
-3.88288e-05
-4.24357e-05
-4.62683e-05
-5.01608e-05
-5.40849e-05
-5.80165e-05
-6.19326e-05
-6.58103e-05
-6.96273e-05
-7.32338e-05
-7.72072e-05
-5.80099e-05
0.000992169
0.0356802
0.80087
9.3014
9.30143
0.801026
0.0368737
-9.89626e-05
-9.84939e-05
-9.73407e-05
-9.54031e-05
-9.26817e-05
-8.91826e-05
-8.49125e-05
-7.98782e-05
-7.40783e-05
-6.25976e-05
-4.50458e-05
1.65747e-06
0.0010903
0.0363347
0.8179
9.5098
9.50993
0.818421
0.0379314
0.000244216
0.000274851
0.0003067
0.000338846
0.000371256
0.000403918
0.000436816
0.000469938
0.000503445
0.000733508
0.000964974
0.001221
0.00249991
0.0370152
0.801576
9.33491
9.33512
0.802022
0.0384189
0.0016904
0.0017216
0.00175545
0.00178914
0.0018226
0.00185583
0.0018888
0.00192152
0.00195415
0.00217297
0.00239179
0.00263501
0.00383705
0.0338038
0.67248
7.84258
7.84267
0.671382
0.0333904
0.00288763
0.00290536
0.00292636
0.00294706
0.00296736
0.00298724
0.0030067
0.00302576
0.00304456
0.00323932
0.00343415
0.00365618
0.00472501
0.0256699
0.404581
4.68831
4.68797
0.400072
0.0214714
0.0035079
0.00350989
0.00351491
0.00351976
0.00352429
0.00352853
0.00353246
0.0035361
0.00353961
0.00370912
0.00387902
0.00407961
0.00502033
0.0166436
0.120332
1.30062
1.29982
0.112143
0.00841595
0.00354857
0.00354136
0.00353678
0.00353224
0.00352762
0.00352292
0.00351814
0.00351329
0.0035085
0.00365985
0.00381191
0.00399657
0.00487784
0.0122787
-0.0119545
-0.292862
-0.29384
-0.0218394
0.00217705
0.00331712
0.00330874
0.00330282
0.00329701
0.00329122
0.00328544
0.00327968
0.00327392
0.00326831
0.00340882
0.00355011
0.003724
0.00460108
0.012436
0.000265952
-0.146907
-0.147838
-0.00942814
0.00253413
0.00309015
0.00308276
0.00307768
0.0030727
0.00306774
0.00306279
0.00305785
0.00305292
0.00304813
0.00317937
0.00331138
0.00347575
0.00434965
0.0127978
0.0193869
0.0882722
0.0873729
0.0099683
0.00321388
0.00289759
0.00289068
0.00288599
0.00288145
0.00287697
0.00287254
0.00286818
0.00286387
0.00285973
0.00298157
0.00310426
0.0032596
0.00412439
0.0123602
0.0116887
-0.00309197
-0.00399212
0.00218083
0.00268886
0.00271276
0.00270743
0.00270419
0.00270106
0.00269795
0.00269484
0.00269171
0.00268857
0.0026855
0.00279815
0.00291197
0.0030591
0.00392662
0.0123311
0.0131291
0.0150468
0.0141465
0.00353571
0.00258515
0.002539
0.00253176
0.002526
0.00251993
0.00251348
0.00250665
0.00249944
0.00249185
0.00248398
0.0025791
0.00267223
0.00279632
0.00365346
0.0122261
0.0128331
0.0124592
0.0115342
0.00300498
0.00222146
0.00216695
0.0021452
0.00212451
0.00210377
0.00208292
0.00206196
0.00204091
0.00201976
0.00199854
0.00197735
0.00195658
0.00196834
0.00269987
0.0111147
0.0117344
0.0116086
0.010711
0.0021103
0.0013239
0.00126644
0.00124538
0.00122456
0.00120391
0.0011834
0.00116303
0.0011428
0.00112272
0.00110279
0.00108304
0.00106429
0.00107321
0.00168486
0.0087648
0.00928822
0.00917385
0.00843154
0.00122275
0.000570874
0.000525572
0.000512106
0.000498482
0.000485083
0.000471905
0.000458949
0.000446213
0.000433697
0.0004214
0.000409333
0.000397975
0.000403098
0.000767299
0.00501468
0.00532938
0.00526599
0.00482852
0.000508842
0.000123714
9.95646e-05
9.44866e-05
8.92902e-05
8.42507e-05
7.93719e-05
7.46508e-05
7.00843e-05
6.56694e-05
6.14033e-05
5.72858e-05
5.34445e-05
5.4198e-05
0.000154469
0.00134238
0.00142997
0.00141336
0.00129364
8.70377e-05
-1.83532e-05
-2.37493e-05
-2.40126e-05
-2.42777e-05
-2.4501e-05
-2.46822e-05
-2.4823e-05
-2.49252e-05
-2.49908e-05
-2.50215e-05
-2.50197e-05
-2.50174e-05
-2.60102e-05
-4.95798e-05
-0.000317551
-0.000337755
-0.00033396
-0.00030645
-3.4416e-05
-1.00896e-05
-8.49853e-06
-8.11876e-06
-7.72527e-06
-7.33924e-06
-6.96127e-06
-6.59146e-06
-6.22989e-06
-5.87662e-06
-5.5317e-06
-5.19552e-06
-4.88388e-06
-5.12292e-06
-1.75584e-05
-0.000164419
-0.000175281
-0.000173363
-0.000158794
-9.87573e-06
2.9543e-06
3.50774e-06
3.46165e-06
3.41388e-06
3.36507e-06
3.3152e-06
3.26434e-06
3.21257e-06
3.15995e-06
3.10655e-06
3.05261e-06
3.00546e-06
3.20689e-06
8.9941e-06
7.62365e-05
8.12582e-05
8.03925e-05
7.37016e-05
5.56097e-06
-3.45199e-07
-6.25498e-07
-6.27769e-07
-6.3037e-07
-6.32675e-07
-6.34643e-07
-6.36275e-07
-6.37574e-07
-6.38541e-07
-6.39181e-07
-6.39532e-07
-6.41107e-07
-6.94215e-07
-1.91025e-06
-1.59324e-05
-1.69849e-05
-1.68085e-05
-1.54163e-05
-1.21613e-06
1.45001e-08
7.36545e-08
7.4981e-08
7.64382e-08
7.78804e-08
7.92986e-08
8.06914e-08
8.20574e-08
8.33954e-08
8.47045e-08
8.59881e-08
8.74545e-08
9.60815e-08
2.66263e-07
2.21782e-06
2.36487e-06
2.34091e-06
2.14776e-06
1.7265e-07
1.70771e-09
-6.50736e-09
-6.71374e-09
-6.94181e-09
-7.1729e-09
-7.40597e-09
-7.64081e-09
-7.87724e-09
-8.11506e-09
-8.3541e-09
-8.59466e-09
-8.85841e-09
-9.87477e-09
-2.7811e-08
-2.32577e-07
-2.48056e-07
-2.45604e-07
-2.25407e-07
-1.82912e-08
-3.97067e-10
4.59401e-10
4.80203e-10
5.03415e-10
5.27341e-10
5.51899e-10
5.77084e-10
6.02889e-10
6.29307e-10
6.56332e-10
6.83995e-10
7.14116e-10
8.07822e-10
2.32211e-09
1.95448e-08
2.08506e-08
2.06493e-08
1.89565e-08
1.54583e-09
4.45575e-11
-2.69168e-11
-2.85035e-11
-3.02933e-11
-3.21665e-11
-3.41193e-11
-3.61529e-11
-3.82687e-11
-4.04678e-11
-4.27517e-11
-4.51242e-11
-4.77136e-11
-5.47836e-11
-1.61116e-10
-1.36659e-09
-1.45821e-09
-1.44447e-09
-1.32641e-09
-1.08421e-10
-3.61889e-12
1.34262e-12
1.44043e-12
1.55204e-12
1.67056e-12
1.79593e-12
1.9284e-12
2.06823e-12
2.21565e-12
2.37093e-12
2.53449e-12
2.71413e-12
3.16376e-12
9.53388e-12
8.15509e-11
8.70369e-11
8.62361e-11
7.9208e-11
6.48003e-12
2.35895e-13
-5.80198e-14
-6.30707e-14
-6.89034e-14
-7.51862e-14
-8.19281e-14
-8.91533e-14
-9.68869e-14
-1.05155e-13
-1.13984e-13
-1.23409e-13
-1.3385e-13
-1.5844e-13
-4.89732e-13
-4.22617e-12
-4.51137e-12
-4.47084e-12
-4.1075e-12
-3.35992e-13
-1.29221e-14
2.03717e-15
2.24219e-15
2.48165e-15
2.743e-15
3.02715e-15
3.33563e-15
3.67008e-15
4.03217e-15
4.4237e-15
4.84687e-15
5.31976e-15
6.38871e-15
2.02286e-14
1.76049e-13
1.87959e-13
1.86307e-13
1.71208e-13
1.3992e-14
5.567e-16
)
;

boundaryField
{
    top
    {
        type            zeroGradient;
    }
    left
    {
        type            fixedValue;
        value           uniform 0;
    }
    bottom
    {
        type            zeroGradient;
    }
    right
    {
        type            zeroGradient;
    }
    frontAndBack
    {
        type            empty;
    }
}


// ************************************************************************* //
