/*--------------------------------*- C++ -*----------------------------------*\
| =========                 |                                                 |
| \\      /  F ield         | OpenFOAM: The Open Source CFD Toolbox           |
|  \\    /   O peration     | Version:  v1806                                 |
|   \\  /    A nd           | Web:      www.OpenFOAM.com                      |
|    \\/     M anipulation  |                                                 |
\*---------------------------------------------------------------------------*/
FoamFile
{
    version     2.0;
    format      ascii;
    class       volScalarField;
    location    "0.01";
    object      T;
}
// * * * * * * * * * * * * * * * * * * * * * * * * * * * * * * * * * * * * * //

dimensions      [0 0 0 1 0 0 0];


internalField   nonuniform List<scalar> 
1881
(
7.64151e-158
7.30214e-156
6.61523e-154
5.59807e-152
4.39925e-150
3.18839e-148
2.11375e-146
1.26913e-144
6.81719e-143
3.22555e-141
1.31733e-139
4.51753e-138
1.25019e-136
2.62417e-135
3.74095e-134
2.81202e-133
2.76477e-133
3.20514e-134
2.03774e-135
2.66122e-155
2.55799e-153
2.33094e-151
1.98415e-149
1.56849e-147
1.14355e-145
7.62664e-144
4.60678e-142
2.48954e-140
1.18511e-138
4.8697e-137
1.68024e-135
4.67866e-134
9.8813e-133
1.41731e-131
1.07167e-130
1.05415e-130
1.21875e-131
7.72446e-133
9.18975e-153
8.88539e-151
8.14429e-149
6.9736e-147
5.54547e-145
4.06726e-143
2.72887e-141
1.65831e-139
9.01619e-138
4.31826e-136
1.78532e-134
6.19811e-133
1.73657e-131
3.69039e-130
5.32593e-129
4.05096e-128
3.98656e-128
4.59642e-129
2.90411e-130
3.13694e-150
3.05105e-148
2.8131e-146
2.42306e-144
1.93836e-142
1.43022e-140
9.65395e-139
5.90233e-137
3.22871e-135
1.55589e-133
6.47239e-132
2.261e-130
6.37433e-129
1.36307e-127
1.97938e-126
1.51453e-125
1.49113e-125
1.71446e-126
1.07979e-127
1.05821e-147
1.03537e-145
9.60306e-144
8.32106e-142
6.69661e-140
4.971e-138
3.37583e-136
2.07659e-134
1.14294e-132
5.54183e-131
2.31971e-129
8.15412e-128
2.31329e-126
4.97777e-125
7.27365e-124
5.59891e-123
5.5149e-123
6.32295e-124
3.96944e-125
3.52673e-145
3.47135e-143
3.23893e-141
2.82342e-139
2.28598e-137
1.70726e-135
1.16651e-133
7.21979e-132
3.99834e-130
1.95078e-128
8.21677e-127
2.90649e-125
8.2977e-124
1.79681e-122
2.64206e-121
2.04605e-120
2.01625e-120
2.30503e-121
1.44232e-122
1.16087e-142
1.14954e-140
1.07903e-138
9.46301e-137
7.70839e-135
5.79218e-133
3.98198e-131
2.47982e-129
1.38189e-127
6.78451e-126
2.87568e-124
1.02365e-122
2.94098e-121
6.40906e-120
9.48367e-119
7.38905e-118
7.28466e-118
8.30367e-119
5.17861e-120
3.77285e-140
3.75873e-138
3.54954e-136
3.13188e-134
2.56681e-132
1.94062e-130
1.3424e-128
8.41209e-127
4.7171e-125
2.33051e-123
9.94075e-122
3.56115e-120
1.02968e-118
2.25829e-117
3.36296e-116
2.63628e-115
2.60018e-115
2.95509e-116
1.83674e-117
1.2103e-137
1.21314e-135
1.1526e-133
1.02321e-131
8.43768e-130
6.41883e-128
4.46786e-126
2.81734e-124
1.5898e-122
7.90439e-121
3.39314e-119
1.22335e-117
3.56001e-116
7.85818e-115
1.17772e-113
9.28943e-113
9.1662e-113
1.03858e-113
6.43326e-115
3.83096e-135
3.86356e-133
3.69326e-131
3.29888e-129
2.73722e-127
2.0953e-125
1.4676e-123
9.31282e-122
5.28856e-120
2.64624e-118
1.14326e-116
4.14848e-115
1.21506e-113
2.69948e-112
4.07191e-111
3.23176e-110
3.19027e-110
3.60364e-111
2.22443e-112
1.19609e-132
1.21373e-130
1.16738e-128
1.0492e-126
8.75999e-125
6.74773e-123
4.75615e-121
3.03726e-119
1.73583e-117
8.74144e-116
3.801e-114
1.38822e-112
4.09253e-111
9.15177e-110
1.38944e-108
1.10967e-107
1.09589e-107
1.23402e-108
7.5904e-110
3.68215e-130
3.75972e-128
3.6386e-126
3.29064e-124
2.76469e-122
2.14307e-120
1.52016e-118
9.76977e-117
5.61947e-115
2.84823e-113
1.24655e-111
4.58248e-110
1.35982e-108
3.06085e-107
4.67749e-106
3.75925e-105
3.71413e-105
4.16895e-106
2.55512e-107
1.11727e-127
1.14795e-125
1.11791e-123
1.01736e-121
8.60153e-120
6.70997e-118
4.79007e-116
3.09832e-114
1.79367e-112
9.15044e-111
4.031e-109
1.49162e-107
4.45553e-106
1.00956e-104
1.55295e-103
1.25602e-102
1.24147e-102
1.38898e-103
8.48195e-105
3.34012e-125
3.45347e-123
3.38422e-121
3.0993e-119
2.63706e-117
2.07031e-115
1.48746e-113
9.68358e-112
5.64254e-110
2.89744e-108
1.28482e-106
4.78581e-105
1.43907e-103
3.28248e-102
5.08278e-101
4.13729e-100
4.09104e-100
4.56202e-101
2.77555e-102
9.83407e-123
1.02323e-120
1.00905e-118
9.29975e-117
7.96343e-115
6.29224e-113
4.55012e-111
2.98151e-109
1.7487e-107
9.03887e-106
4.03474e-104
1.51294e-102
4.57982e-101
1.05166e-99
1.63935e-98
1.34301e-97
1.32854e-97
1.47651e-98
8.94942e-100
2.85025e-120
2.98458e-118
2.96196e-116
2.74733e-114
2.36771e-112
1.88296e-110
1.37051e-108
9.0394e-107
5.33679e-105
2.77687e-103
1.24782e-101
4.71049e-100
1.43554e-98
3.31874e-97
5.20814e-96
4.29441e-95
4.24986e-95
4.70706e-96
2.84214e-97
8.12857e-118
8.56632e-116
8.55584e-114
7.987e-112
6.92804e-110
5.5456e-108
4.06288e-106
2.69744e-104
1.60314e-102
8.39737e-101
3.79885e-99
1.44377e-97
4.42985e-96
1.03109e-94
1.62907e-93
1.35206e-92
1.33856e-92
1.47741e-93
8.88601e-95
2.27992e-115
2.41823e-113
2.43084e-111
2.28394e-109
1.99406e-107
1.60664e-105
1.18486e-103
7.91892e-102
4.73787e-100
2.49846e-98
1.13793e-96
4.3542e-95
1.34513e-93
3.15238e-92
5.01466e-91
4.18939e-90
4.14922e-90
4.56336e-91
2.73384e-92
6.28611e-113
6.7108e-111
6.78956e-109
6.42093e-107
5.64281e-105
4.57657e-103
3.39758e-101
2.28595e-99
1.3769e-97
7.31018e-96
3.35216e-94
1.29148e-92
4.01723e-91
9.47964e-90
1.51835e-88
1.2769e-87
1.26515e-87
1.3864e-88
8.2724e-90
1.70284e-110
1.82978e-108
1.86334e-106
1.77376e-104
1.56912e-102
1.2811e-100
9.57441e-99
6.48528e-97
3.93281e-95
2.10225e-93
9.70631e-92
3.76537e-90
1.17937e-88
2.80239e-87
4.51967e-86
3.8264e-85
3.79264e-85
4.14083e-86
2.46067e-87
4.52954e-108
4.89926e-106
5.02193e-104
4.81211e-102
4.28527e-100
3.52214e-98
2.65007e-96
1.80723e-94
1.10343e-92
5.93885e-91
2.761e-89
1.07853e-87
3.40174e-86
8.13975e-85
1.32194e-83
1.12672e-82
1.1172e-82
1.21519e-83
7.19124e-85
1.18241e-105
1.28741e-103
1.32837e-101
1.28135e-99
1.14872e-97
9.50522e-96
7.20032e-94
4.94387e-92
3.03932e-90
1.64715e-88
7.71103e-87
3.03327e-85
9.63443e-84
2.32162e-82
3.79694e-81
3.25821e-80
3.23189e-80
3.50193e-81
2.06362e-82
3.02729e-103
3.3181e-101
3.44649e-99
3.34678e-97
3.0206e-95
2.51642e-93
1.91925e-91
1.32687e-89
8.21365e-88
4.48238e-86
2.11313e-84
8.37102e-83
2.67771e-81
6.49837e-80
1.07032e-78
9.24748e-78
9.17615e-78
9.9041e-79
5.8112e-80
7.59671e-101
8.38241e-99
8.76512e-97
8.569e-95
7.78641e-93
6.53112e-91
5.01554e-89
3.49151e-87
2.17641e-85
1.19606e-83
5.67844e-82
2.26547e-80
7.29848e-79
1.78391e-77
2.95918e-76
2.57436e-75
2.55542e-75
2.74719e-76
1.60485e-77
1.86718e-98
2.07422e-96
2.18357e-94
2.14922e-92
1.9663e-90
1.66066e-88
1.28414e-86
9.00176e-85
5.65063e-83
3.12731e-81
1.49529e-79
6.00831e-78
1.94958e-76
4.79959e-75
8.01886e-74
7.02459e-73
6.9754e-73
7.46847e-74
4.34351e-75
4.49178e-96
5.02383e-94
5.32461e-92
5.27671e-90
4.86086e-88
4.13377e-86
3.21884e-84
2.27226e-82
1.43645e-80
8.00656e-79
3.8557e-77
1.56045e-75
5.10006e-74
1.26469e-72
2.12827e-71
1.87745e-70
1.86496e-70
1.98854e-71
1.15125e-72
1.05679e-93
1.19007e-91
1.26995e-89
1.2672e-87
1.17543e-85
1.00659e-83
7.89311e-82
5.61139e-80
3.57262e-78
2.00562e-76
9.72815e-75
3.9657e-73
1.30558e-71
3.26123e-70
5.5282e-69
4.91116e-68
4.88015e-68
5.18158e-69
2.98599e-70
2.42964e-91
2.75493e-89
2.96011e-87
2.97418e-85
2.77807e-83
2.39576e-81
1.89192e-79
1.3546e-77
8.6863e-76
4.9116e-74
2.39968e-72
9.85392e-71
3.26795e-69
8.22329e-68
1.4042e-66
1.25636e-65
1.24884e-65
1.32028e-66
7.57257e-68
5.45378e-89
6.22693e-87
6.73712e-85
6.81643e-83
6.41175e-81
5.56854e-79
4.42883e-77
3.19378e-75
2.0628e-73
1.17488e-71
5.78223e-70
2.39189e-68
7.99126e-67
2.02582e-65
3.48493e-64
3.14039e-63
3.12264e-63
3.28676e-64
1.87612e-65
1.19414e-86
1.37296e-84
1.49583e-82
1.52409e-80
1.44376e-78
1.26284e-76
1.01159e-74
7.34765e-73
4.78027e-71
2.74261e-69
1.35975e-67
5.66654e-66
1.90731e-64
4.87136e-63
8.44255e-62
7.66295e-61
7.6221e-61
7.98676e-62
4.53666e-63
2.54788e-84
2.95006e-82
3.23668e-80
3.32119e-78
3.16859e-76
2.79144e-74
2.25224e-72
1.64783e-70
1.07992e-68
6.24166e-67
3.11754e-65
1.30891e-63
4.43884e-62
1.14226e-60
1.99455e-59
1.82358e-58
1.81443e-58
1.89254e-59
1.06965e-60
5.29189e-82
6.17067e-80
6.81817e-78
7.04611e-76
6.77068e-74
6.00794e-72
4.88277e-70
3.59866e-68
2.37585e-66
1.3834e-64
6.96147e-63
2.94484e-61
1.00624e-59
2.60907e-58
4.59038e-57
4.22778e-56
4.20787e-56
4.3685e-57
2.45653e-58
1.0687e-79
1.25507e-77
1.39666e-75
1.45373e-73
1.40701e-71
1.25761e-69
1.02959e-67
7.6443e-66
5.08437e-64
2.9827e-62
1.51227e-60
6.44582e-59
2.21933e-57
5.79862e-56
1.02801e-54
9.53827e-54
9.49622e-54
9.81167e-55
5.48884e-56
2.09594e-77
2.47916e-75
2.77868e-73
2.91315e-71
2.8401e-69
2.55716e-67
2.109e-65
1.57752e-63
1.05711e-61
6.24829e-60
3.19208e-58
1.37099e-56
4.75673e-55
1.25243e-53
2.23749e-52
2.09156e-51
2.08295e-51
2.14165e-52
1.19176e-53
3.98667e-75
4.74974e-73
5.36212e-71
5.66261e-69
5.56115e-67
5.04418e-65
4.19115e-63
3.15848e-61
2.13252e-59
1.27008e-57
6.5382e-56
2.8298e-54
9.89439e-53
2.62545e-51
4.72686e-50
4.4519e-49
4.43484e-49
4.53709e-50
2.51116e-51
7.34389e-73
8.8134e-71
1.00223e-68
1.06616e-66
1.05481e-64
9.63883e-63
8.06891e-61
6.12677e-59
4.16815e-57
2.50149e-55
1.29768e-53
5.6602e-52
1.99456e-50
5.33406e-49
9.6787e-48
9.18502e-47
9.15237e-47
9.31569e-48
5.12766e-49
1.30815e-70
1.58144e-68
1.81157e-66
1.9414e-64
1.93504e-62
1.78151e-60
1.50263e-58
1.14965e-56
7.88132e-55
4.76649e-53
2.49194e-51
1.09544e-49
3.8906e-48
1.0487e-46
1.9179e-45
1.83404e-44
1.82801e-44
1.85094e-45
1.01311e-46
2.24941e-68
2.73949e-66
3.16135e-64
3.41318e-62
3.42754e-60
3.17948e-58
2.70219e-56
2.0833e-54
1.43923e-52
8.77206e-51
4.62206e-49
2.04789e-47
7.33111e-46
1.99184e-44
3.67178e-43
3.53838e-42
3.52768e-42
3.5529e-43
1.93354e-44
3.72707e-66
4.57293e-64
5.31648e-62
5.78308e-60
5.85136e-58
5.46925e-56
4.68395e-54
3.63911e-52
2.53365e-50
1.55638e-48
8.26551e-47
3.69135e-45
1.33203e-43
3.6482e-42
6.77912e-41
6.58382e-40
6.56557e-40
6.57648e-41
3.5581e-42
5.93852e-64
7.34101e-62
8.59873e-60
9.42418e-58
9.60816e-56
9.04971e-54
7.81029e-52
6.11539e-50
4.29116e-48
2.65684e-46
1.42223e-44
6.40262e-43
2.32906e-41
6.43062e-40
1.20462e-38
1.17913e-37
1.17614e-37
1.17153e-38
6.30054e-40
9.07905e-62
1.13082e-59
1.33458e-57
1.47385e-55
1.51417e-53
1.4372e-51
1.25004e-49
9.86462e-48
6.97681e-46
4.35411e-44
2.34953e-42
1.06627e-40
3.91033e-39
1.08848e-37
2.05566e-36
2.02814e-35
2.02348e-35
2.00404e-36
1.07121e-37
1.32859e-59
1.66741e-57
1.98287e-55
2.20662e-53
2.28453e-51
2.18532e-49
1.91568e-47
1.52372e-45
1.08627e-43
6.83373e-42
3.71743e-40
1.70083e-38
6.28863e-37
1.76495e-35
3.36065e-34
3.34221e-33
3.33529e-33
3.28396e-34
1.74441e-35
1.85591e-57
2.3471e-55
2.8126e-53
3.1542e-51
3.29105e-49
3.17288e-47
2.80343e-45
2.24764e-43
1.61524e-41
1.02439e-39
5.61803e-38
2.59155e-36
9.6613e-35
2.73406e-33
5.2492e-32
5.26259e-31
5.25282e-31
5.14103e-32
2.71347e-33
2.46729e-55
3.14443e-53
3.79724e-51
4.29166e-49
4.51307e-47
4.38551e-45
3.9058e-43
3.15667e-41
2.2869e-39
1.46222e-37
8.08524e-36
3.76059e-34
1.41365e-32
4.03406e-31
7.80999e-30
7.89377e-29
7.88074e-29
7.66575e-30
4.01968e-31
3.11102e-53
3.99576e-51
4.86297e-49
5.53937e-47
5.87132e-45
5.75094e-43
5.16311e-41
4.20668e-39
3.07253e-37
1.98073e-35
1.10432e-33
5.17937e-32
1.96338e-30
5.65018e-29
1.10313e-27
1.12414e-26
1.1225e-26
1.08502e-27
5.65159e-29
3.70627e-51
4.79771e-49
5.88488e-47
6.75656e-45
7.21865e-43
7.12758e-41
6.45097e-39
5.29898e-37
3.90224e-35
2.53651e-33
1.42603e-31
6.74464e-30
2.57845e-28
7.48351e-27
1.47352e-25
1.51405e-24
1.51213e-24
1.45223e-25
7.51271e-27
4.15357e-49
5.4193e-47
6.70002e-45
7.75389e-43
8.3509e-41
8.31247e-39
7.58492e-37
6.28182e-35
4.66447e-33
3.05738e-31
1.73338e-29
8.26803e-28
3.1879e-26
9.33197e-25
1.85329e-23
1.92023e-22
1.91812e-22
1.82999e-23
9.40086e-25
4.35678e-47
5.72982e-45
7.14051e-43
8.33021e-41
9.0444e-39
9.07644e-37
8.35035e-35
6.97324e-33
5.22128e-31
3.45126e-29
1.97336e-27
9.49344e-26
3.69201e-24
1.09014e-22
2.18377e-21
2.28179e-20
2.27965e-20
2.16018e-21
1.10178e-22
4.25237e-45
5.63749e-43
7.08202e-41
8.32903e-39
9.11712e-37
9.22489e-35
8.5575e-33
7.20615e-31
5.44128e-29
3.62733e-27
2.09184e-25
1.01505e-23
3.98194e-22
1.18605e-20
2.39669e-19
2.52564e-18
2.52366e-18
2.3748e-19
1.20238e-20
3.83559e-43
5.12617e-41
6.49195e-39
7.69753e-37
8.49537e-35
8.66727e-33
8.10764e-31
6.88504e-29
5.24313e-27
3.52527e-25
2.05059e-23
1.00372e-21
3.9721e-20
1.19357e-18
2.4332e-17
2.58621e-16
2.58454e-16
2.41476e-17
1.21345e-18
3.1711e-41
4.27273e-39
5.45539e-37
6.52183e-35
7.25767e-33
7.46661e-31
7.04355e-29
6.0324e-27
4.63331e-25
3.14225e-23
1.84377e-21
9.1043e-20
3.63485e-18
1.10197e-16
2.26648e-15
2.42996e-14
2.4287e-14
2.25255e-15
1.12325e-16
2.37934e-39
3.23232e-37
4.16104e-35
5.01581e-33
5.62852e-31
5.83951e-29
5.5556e-27
4.79896e-25
3.71788e-23
2.54346e-21
1.50556e-19
7.50032e-18
3.02126e-16
9.24184e-15
1.91792e-13
2.07432e-12
2.07347e-12
1.90864e-13
9.44265e-15
1.60047e-37
2.19227e-35
2.84562e-33
3.45892e-31
3.91425e-29
4.09559e-27
3.92995e-25
3.42414e-23
2.67596e-21
1.8468e-19
1.1029e-17
5.54359e-16
2.2532e-14
6.95494e-13
1.45643e-11
1.58915e-10
1.58867e-10
1.45109e-11
7.12108e-13
9.50246e-36
1.3125e-33
1.71793e-31
2.10583e-29
2.40334e-27
2.53628e-25
2.4548e-23
2.15754e-21
1.70097e-19
1.18435e-17
7.13631e-16
3.61937e-14
1.48449e-12
4.6241e-11
9.77202e-10
1.07579e-08
1.07556e-08
9.74627e-10
4.74329e-11
4.87983e-34
6.79694e-32
8.97157e-30
1.10909e-27
1.27665e-25
1.35894e-23
1.32677e-21
1.17638e-19
9.3568e-18
6.57332e-16
3.99655e-14
2.04543e-12
8.46635e-11
2.66157e-09
5.67662e-08
6.30575e-07
6.30484e-07
5.66664e-08
2.73442e-09
2.10835e-32
2.96157e-30
3.94234e-28
4.91543e-26
5.70698e-24
6.12782e-22
6.03539e-20
5.39878e-18
4.3326e-16
3.07122e-14
1.8843e-12
9.7324e-11
4.06567e-09
1.29003e-07
2.77702e-06
3.11289e-05
3.11262e-05
2.77413e-06
1.327e-07
7.36447e-31
1.04331e-28
1.4007e-26
1.7615e-24
2.06297e-22
2.23455e-20
2.22034e-18
2.00389e-16
1.62265e-14
1.1607e-12
7.18665e-11
3.74624e-09
1.57957e-07
5.05893e-06
0.000109925
0.00124352
0.00124347
0.000109871
5.20875e-06
1.95389e-29
2.79177e-27
3.7803e-25
4.79527e-23
5.66504e-21
6.19033e-19
6.20572e-17
5.65105e-15
4.6174e-13
3.33307e-11
2.08275e-09
1.09579e-07
4.66359e-06
0.000150771
0.00330704
0.0377561
0.0377557
0.00330662
0.000155328
3.52187e-28
5.07514e-26
6.93108e-24
8.86802e-22
1.05679e-19
1.16495e-17
1.17822e-15
1.08253e-13
8.92524e-12
6.50151e-10
4.10004e-08
2.17718e-06
9.35273e-05
0.00305219
0.0675794
0.778677
0.778679
0.0675829
0.0031452
3.33244e-27
4.84182e-25
6.66718e-23
8.60165e-21
1.03369e-18
1.14919e-16
1.17228e-14
1.08642e-12
9.03582e-11
6.6403e-09
4.22497e-07
2.26375e-05
0.000981299
0.0323171
0.722107
8.39516
8.39517
0.722131
0.0332979
3.6599e-27
5.31482e-25
7.31464e-23
9.43187e-21
1.13284e-18
1.2587e-16
1.28324e-14
1.18855e-12
9.87921e-11
7.25557e-09
4.6135e-07
2.4703e-05
0.00107012
0.0352181
0.786381
9.13609
9.13609
0.786406
0.0362882
3.67808e-27
5.34092e-25
7.35012e-23
9.47705e-21
1.1382e-18
1.26458e-16
1.28915e-14
1.19394e-12
9.92341e-11
7.28755e-09
4.63352e-07
2.48085e-05
0.00107462
0.0353637
0.789578
9.1726
9.1726
0.789603
0.0364384
3.67876e-27
5.34189e-25
7.35143e-23
9.4787e-21
1.13839e-18
1.26479e-16
1.28936e-14
1.19414e-12
9.92496e-11
7.28867e-09
4.63422e-07
2.48122e-05
0.00107477
0.0353687
0.789685
9.17381
9.17381
0.78971
0.0364435
3.67878e-27
5.34192e-25
7.35146e-23
9.47875e-21
1.1384e-18
1.26479e-16
1.28937e-14
1.19414e-12
9.92501e-11
7.2887e-09
4.63423e-07
2.48123e-05
0.00107478
0.0353688
0.789689
9.17384
9.17384
0.789713
0.0364436
3.67878e-27
5.34192e-25
7.35146e-23
9.47875e-21
1.1384e-18
1.26479e-16
1.28937e-14
1.19414e-12
9.92501e-11
7.2887e-09
4.63424e-07
2.48123e-05
0.00107478
0.0353697
0.790013
9.17417
9.17417
0.790038
0.0364446
3.67878e-27
5.34192e-25
7.35146e-23
9.47875e-21
1.1384e-18
1.26479e-16
1.28937e-14
1.19414e-12
9.92504e-11
7.28875e-09
4.63433e-07
2.48137e-05
0.00107499
0.0353948
0.792001
9.17618
9.17618
0.792026
0.0364698
3.6788e-27
5.34195e-25
7.35153e-23
9.47885e-21
1.13841e-18
1.26482e-16
1.2894e-14
1.1942e-12
9.92578e-11
7.28971e-09
4.63546e-07
2.48254e-05
0.00107597
0.0354537
0.793942
9.17818
9.17818
0.793967
0.0365297
3.67925e-27
5.34269e-25
7.35271e-23
9.48067e-21
1.13868e-18
1.26519e-16
1.28988e-14
1.19478e-12
9.93224e-11
7.29614e-09
4.64103e-07
2.48657e-05
0.00107825
0.0355444
0.795849
9.18018
9.18018
0.795874
0.0366227
3.68467e-27
5.35115e-25
7.3653e-23
9.49831e-21
1.14099e-18
1.26801e-16
1.29305e-14
1.19801e-12
9.96181e-11
7.31986e-09
4.65727e-07
2.4957e-05
0.00108221
0.035662
0.797688
9.18213
9.18213
0.797713
0.0367442
3.71176e-27
5.39037e-25
7.41894e-23
9.56684e-21
1.14911e-18
1.27687e-16
1.30185e-14
1.20588e-12
1.00242e-10
7.36289e-09
4.68236e-07
2.50759e-05
0.00108651
0.0357681
0.799058
9.1836
9.1836
0.799083
0.0368547
3.71455e-27
5.39436e-25
7.42435e-23
9.57368e-21
1.14992e-18
1.27773e-16
1.3027e-14
1.20663e-12
1.00301e-10
7.36688e-09
4.68465e-07
2.50865e-05
0.00108688
0.0357773
0.799174
9.18373
9.18373
0.799199
0.0368642
3.71469e-27
5.39457e-25
7.42463e-23
9.57403e-21
1.14996e-18
1.27777e-16
1.30274e-14
1.20667e-12
1.00304e-10
7.36707e-09
4.68476e-07
2.5087e-05
0.0010869
0.0357777
0.799179
9.18373
9.18373
0.799204
0.0368646
3.7147e-27
5.39458e-25
7.42464e-23
9.57404e-21
1.14996e-18
1.27777e-16
1.30274e-14
1.20667e-12
1.00304e-10
7.36708e-09
4.68476e-07
2.5087e-05
0.0010869
0.0357777
0.799179
9.18373
9.18373
0.799204
0.0368647
3.7147e-27
5.39458e-25
7.42464e-23
9.57405e-21
1.14996e-18
1.27777e-16
1.30274e-14
1.20667e-12
1.00304e-10
7.36708e-09
4.68476e-07
2.5087e-05
0.0010869
0.0357777
0.799179
9.18373
9.18373
0.799204
0.0368647
3.71471e-27
5.39459e-25
7.42465e-23
9.57406e-21
1.14996e-18
1.27778e-16
1.30274e-14
1.20667e-12
1.00304e-10
7.36708e-09
4.68476e-07
2.5087e-05
0.0010869
0.0357777
0.799179
9.18373
9.18373
0.799204
0.0368647
3.71508e-27
5.39504e-25
7.42517e-23
9.57461e-21
1.15001e-18
1.27782e-16
1.30278e-14
1.2067e-12
1.00305e-10
7.36714e-09
4.68478e-07
2.50871e-05
0.0010869
0.0357776
0.799176
9.1837
9.1837
0.799201
0.0368645
3.72808e-27
5.41115e-25
7.44387e-23
9.59463e-21
1.15197e-18
1.27956e-16
1.30414e-14
1.20763e-12
1.0036e-10
7.36966e-09
4.68562e-07
2.50884e-05
0.00108685
0.0357739
0.79907
9.18249
9.18249
0.799094
0.0368595
4.076e-27
5.84621e-25
7.95338e-23
1.01452e-20
1.20636e-18
1.3281e-16
1.34272e-14
1.23436e-12
1.01925e-10
7.44336e-09
4.71059e-07
2.51284e-05
0.00108555
0.0356649
0.795913
9.14602
9.14601
0.795901
0.0367095
1.03447e-26
1.37555e-24
1.73001e-22
2.03376e-20
2.2226e-18
2.24392e-16
2.07756e-14
1.74867e-12
1.32388e-10
8.89475e-09
5.21044e-07
2.59642e-05
0.00106105
0.0335073
0.732446
8.4059
8.40583
0.731689
0.0337226
6.75408e-26
8.65732e-24
1.04133e-21
1.15899e-19
1.184e-17
1.09939e-15
9.1674e-14
6.7616e-12
4.32532e-10
2.33708e-08
1.0277e-06
3.47893e-05
0.000828691
0.0118881
0.086189
0.797684
0.796992
0.077796
0.0036001
7.37288e-26
9.43947e-24
1.13391e-21
1.26012e-19
1.28497e-17
1.1905e-15
9.89941e-14
7.27451e-12
4.6294e-10
2.48209e-08
1.07768e-06
3.56262e-05
0.000804226
0.00973091
0.02272
0.0575657
0.056815
0.0135859
0.000612813
7.40673e-26
9.48196e-24
1.1389e-21
1.26553e-19
1.29033e-17
1.1953e-15
9.93765e-14
7.30106e-12
4.645e-10
2.48944e-08
1.08018e-06
3.56664e-05
0.000802928
0.00962195
0.0195631
0.0210932
0.0203391
0.0103919
0.000462745
7.40797e-26
9.48351e-24
1.13908e-21
1.26572e-19
1.29053e-17
1.19547e-15
9.939e-14
7.30199e-12
4.64553e-10
2.48969e-08
1.08026e-06
3.56676e-05
0.000802882
0.00961824
0.0194573
0.0198822
0.0191279
0.0102849
0.000457666
7.40801e-26
9.48355e-24
1.13909e-21
1.26573e-19
1.29053e-17
1.19548e-15
9.93903e-14
7.30201e-12
4.64555e-10
2.4897e-08
1.08026e-06
3.56677e-05
0.00080288
0.00961812
0.0194516
0.0198487
0.0190943
0.0102791
0.000457515
7.40801e-26
9.48355e-24
1.13909e-21
1.26573e-19
1.29053e-17
1.19548e-15
9.93903e-14
7.30201e-12
4.64555e-10
2.4897e-08
1.08026e-06
3.56676e-05
0.000802867
0.00961501
0.0187257
0.0191192
0.0183648
0.00955326
0.000454388
7.40797e-26
9.4835e-24
1.13908e-21
1.26572e-19
1.29052e-17
1.19547e-15
9.93899e-14
7.30198e-12
4.64552e-10
2.48968e-08
1.08024e-06
3.5665e-05
0.000802549
0.00958298
0.0167504
0.0171122
0.0163579
0.007578
0.000422071
7.40659e-26
9.48178e-24
1.13888e-21
1.2655e-19
1.29031e-17
1.19527e-15
9.93734e-14
7.30076e-12
4.6447e-10
2.48916e-08
1.07992e-06
3.56444e-05
0.000801244
0.00951634
0.0148147
0.0151122
0.014358
0.00564345
0.000355451
7.36984e-26
9.43546e-24
1.1334e-21
1.25951e-19
1.28428e-17
1.18976e-15
9.89205e-14
7.26772e-12
4.62367e-10
2.47771e-08
1.0747e-06
3.54497e-05
0.000795435
0.00938292
0.0128756
0.013079
0.0123279
0.0037408
0.000255936
6.70896e-26
8.5954e-24
1.03321e-21
1.14895e-19
1.17234e-17
1.08678e-15
9.04146e-14
6.64668e-12
4.23075e-10
2.26804e-08
9.83914e-07
3.24444e-05
0.000726843
0.00851852
0.0102688
0.010356
0.00966618
0.00187473
0.000128127
6.88836e-27
8.76628e-25
1.04658e-22
1.1557e-20
1.17077e-18
1.07733e-16
8.895e-15
6.48813e-13
4.09677e-11
2.17812e-09
9.36891e-08
3.06237e-06
6.79856e-05
0.000789293
0.000940042
0.000947286
0.000882764
0.000161477
1.10378e-05
3.7031e-28
4.68045e-26
5.54905e-24
6.08393e-22
6.11823e-20
5.58769e-18
4.578e-16
3.31286e-14
2.07484e-12
1.09393e-10
4.66505e-09
1.51141e-07
3.32505e-06
3.82469e-05
4.5231e-05
4.55576e-05
4.24024e-05
7.48153e-06
5.11581e-07
1.35017e-29
1.69498e-27
1.99573e-25
2.17269e-23
2.16916e-21
1.9664e-19
1.59884e-17
1.14798e-15
7.1323e-14
3.72953e-12
1.57706e-10
5.06529e-09
1.10448e-07
1.25905e-06
1.48089e-06
1.49101e-06
1.38623e-06
2.37655e-07
1.62572e-08
3.73375e-31
4.65609e-29
5.44523e-27
5.88705e-25
5.83585e-23
5.25192e-21
4.23843e-19
3.02e-17
1.86161e-15
9.65631e-14
4.04961e-12
1.2897e-10
2.7879e-09
3.15037e-08
3.68864e-08
3.71261e-08
3.44818e-08
5.76667e-09
3.94644e-10
8.33651e-33
1.0328e-30
1.19985e-28
1.28841e-26
1.26834e-24
1.13331e-22
9.07949e-21
6.42109e-19
3.92785e-17
2.02143e-15
8.40921e-14
2.65607e-12
5.6933e-11
6.37909e-10
7.43961e-10
7.48572e-10
6.94585e-10
1.13623e-10
7.7793e-12
1.56408e-34
1.92533e-32
2.22223e-30
2.37041e-28
2.31763e-26
2.05649e-24
1.63581e-22
1.14842e-20
6.97247e-19
3.56084e-17
1.46971e-15
4.60487e-14
9.78977e-13
1.08789e-11
1.26434e-11
1.27184e-11
1.17903e-11
1.89064e-12
1.29507e-13
2.53519e-36
3.10118e-34
3.55666e-32
3.76917e-30
3.66073e-28
3.22616e-26
2.54834e-24
1.7763e-22
1.07059e-20
5.42663e-19
2.22267e-17
6.9096e-16
1.45725e-14
1.60644e-13
1.86124e-13
1.87181e-13
1.7337e-13
2.73023e-14
1.87118e-15
3.62316e-38
4.40481e-36
5.02033e-34
5.28646e-32
5.10097e-30
4.46551e-28
3.50328e-26
2.42493e-24
1.4511e-22
7.30176e-21
2.96839e-19
9.15748e-18
1.91634e-16
2.09614e-15
2.42191e-15
2.43512e-15
2.25355e-15
3.49093e-16
2.39396e-17
4.63723e-40
5.60373e-38
6.34788e-36
6.64277e-34
6.36889e-32
5.53919e-30
4.31669e-28
2.96762e-26
1.76349e-24
8.8105e-23
3.55567e-21
1.08877e-19
2.26121e-18
2.45469e-17
2.82917e-17
2.84402e-17
2.62983e-17
4.01319e-18
2.75399e-19
5.32281e-42
6.39482e-40
7.20144e-38
7.49069e-36
7.13774e-34
6.16888e-32
4.77653e-30
3.26218e-28
1.92552e-26
9.55391e-25
3.82863e-23
1.16396e-21
2.39974e-20
2.58615e-19
2.97413e-19
2.98919e-19
2.76194e-19
4.15817e-20
2.85567e-21
)
;

boundaryField
{
    top
    {
        type            zeroGradient;
    }
    left
    {
        type            fixedValue;
        value           uniform 0;
    }
    bottom
    {
        type            zeroGradient;
    }
    right
    {
        type            zeroGradient;
    }
    frontAndBack
    {
        type            empty;
    }
}


// ************************************************************************* //
