/*--------------------------------*- C++ -*----------------------------------*\
| =========                 |                                                 |
| \\      /  F ield         | OpenFOAM: The Open Source CFD Toolbox           |
|  \\    /   O peration     | Version:  v1806                                 |
|   \\  /    A nd           | Web:      www.OpenFOAM.com                      |
|    \\/     M anipulation  |                                                 |
\*---------------------------------------------------------------------------*/
FoamFile
{
    version     2.0;
    format      ascii;
    class       volScalarField;
    location    "0.045";
    object      T;
}
// * * * * * * * * * * * * * * * * * * * * * * * * * * * * * * * * * * * * * //

dimensions      [0 0 0 1 0 0 0];


internalField   nonuniform List<scalar> 
1881
(
4.24646e-35
5.26921e-35
2.14975e-34
4.42478e-33
1.0684e-31
2.31131e-30
4.30422e-29
6.55351e-28
7.18562e-27
2.74659e-26
-9.94015e-25
-2.93643e-23
-4.6042e-22
-4.74462e-21
-3.12566e-20
-1.10559e-19
-1.11047e-19
-3.19747e-20
-5.47588e-21
1.81399e-34
2.12056e-34
1.03011e-33
2.70087e-32
7.92015e-31
2.1356e-29
5.21809e-28
1.14403e-26
2.22393e-25
3.77587e-24
5.49053e-23
6.65973e-22
6.49168e-21
4.80659e-20
2.45966e-19
7.21086e-19
7.20652e-19
2.45981e-19
5.43486e-20
-3.08887e-34
-3.78806e-34
-4.55131e-34
7.43662e-33
4.47695e-31
1.75397e-29
5.57324e-28
1.49845e-26
3.44617e-25
6.75982e-24
1.11711e-22
1.52192e-21
1.65185e-20
1.35241e-19
7.59781e-19
2.4115e-18
2.41529e-18
7.66595e-19
1.53923e-19
-4.07243e-33
-4.6687e-33
-1.43103e-32
-2.89003e-31
-7.77244e-30
-1.93705e-28
-4.36136e-27
-8.76703e-26
-1.55157e-24
-2.37503e-23
-3.07216e-22
-3.25334e-21
-2.69568e-20
-1.63153e-19
-6.44559e-19
-1.37329e-18
-1.35801e-18
-6.25974e-19
-1.81789e-19
-6.76595e-33
-7.35924e-33
-3.40951e-32
-9.22721e-31
-2.76521e-29
-7.60282e-28
-1.89292e-26
-4.22747e-25
-8.37044e-24
-1.44771e-22
-2.14514e-21
-2.65273e-20
-2.638e-19
-1.99408e-18
-1.04216e-17
-3.11521e-17
-3.11505e-17
-1.04443e-17
-2.25797e-18
4.91843e-32
5.57881e-32
8.70548e-32
5.49662e-31
5.90239e-30
-5.60663e-29
-6.40837e-27
-2.48698e-25
-6.92192e-24
-1.53128e-22
-2.75295e-21
-3.99513e-20
-4.55707e-19
-3.88453e-18
-2.25567e-17
-7.34271e-17
-7.35838e-17
-2.28162e-17
-4.42818e-18
2.58423e-31
2.82985e-31
6.6196e-31
1.16562e-29
3.17584e-28
8.09885e-27
1.87183e-25
3.87701e-24
7.10475e-23
1.13355e-21
1.54218e-20
1.73996e-19
1.56564e-18
1.05991e-17
4.90794e-17
1.29954e-16
1.29506e-16
4.86073e-17
1.19219e-17
-5.56769e-32
-8.67396e-32
6.34317e-31
2.74963e-29
8.54809e-28
2.39678e-26
6.07431e-25
1.37961e-23
2.77629e-22
4.87827e-21
7.34207e-20
9.22168e-19
9.31465e-18
7.15213e-17
3.79619e-16
1.15058e-15
1.15094e-15
3.80977e-16
8.10535e-17
-4.38714e-30
-4.80713e-30
-6.76551e-30
-4.39782e-29
-8.50592e-28
-1.55138e-26
-2.07697e-25
-8.82295e-25
5.35671e-23
2.11446e-21
4.85455e-20
8.10611e-19
1.01427e-17
9.23659e-17
5.63354e-16
1.89892e-15
1.90432e-15
5.71758e-16
1.05513e-16
-1.18897e-29
-1.24736e-29
-2.50266e-29
-4.06532e-28
-1.11897e-26
-2.89713e-25
-6.80812e-24
-1.43618e-22
-2.68612e-21
-4.38551e-20
-6.12576e-19
-7.126e-18
-6.64723e-17
-4.69752e-16
-2.28899e-15
-6.40434e-15
-6.39296e-15
-2.27948e-15
-5.30059e-16
3.53211e-29
3.99154e-29
2.61302e-29
-6.96772e-28
-2.36121e-26
-6.75915e-25
-1.74197e-23
-4.01759e-22
-8.20181e-21
-1.46095e-19
-2.22787e-18
-2.8342e-17
-2.89887e-16
-2.25343e-15
-1.21039e-14
-3.70713e-14
-3.70914e-14
-1.21586e-14
-2.55486e-15
2.88896e-28
3.08728e-28
3.92415e-28
2.05414e-27
4.20171e-26
9.04383e-25
1.69431e-23
2.615e-22
2.97168e-21
1.45671e-20
-3.17115e-19
-1.04256e-17
-1.68025e-16
-1.75525e-15
-1.16657e-14
-4.15182e-14
-4.16784e-14
-1.19023e-14
-2.01204e-15
2.84485e-28
2.67327e-28
5.96887e-28
1.22494e-26
3.4645e-25
9.06856e-24
2.15442e-22
4.59863e-21
8.71231e-20
1.44273e-18
2.04722e-17
2.42389e-16
2.30649e-15
1.66708e-14
8.32971e-14
2.39016e-13
2.38762e-13
8.31615e-14
1.8839e-14
-3.60024e-27
-3.93328e-27
-3.8988e-27
1.37473e-26
5.93953e-25
1.73883e-23
4.54636e-22
1.06198e-20
2.19342e-19
3.94974e-18
6.08546e-17
7.81848e-16
8.07366e-15
6.33449e-14
3.43276e-13
1.0595e-12
1.06023e-12
3.45029e-13
7.18269e-14
-1.45587e-26
-1.51662e-26
-1.77813e-26
-7.38333e-26
-1.48325e-24
-3.36534e-23
-6.83575e-22
-1.20435e-20
-1.77825e-19
-2.06597e-18
-1.60377e-17
-2.08229e-17
1.54616e-15
2.48897e-14
1.97846e-13
7.72042e-13
7.76204e-13
2.03726e-13
2.87415e-14
1.21915e-26
1.54395e-26
1.04047e-26
-3.04602e-25
-9.5146e-24
-2.51461e-22
-6.01396e-21
-1.29284e-19
-2.46844e-18
-4.12271e-17
-5.90548e-16
-7.06542e-15
-6.80166e-14
-4.9797e-13
-2.52315e-12
-7.33956e-12
-7.33448e-12
-2.52243e-12
-5.63167e-13
2.47775e-25
2.65035e-25
2.76534e-25
-1.27148e-25
-1.39655e-23
-4.18788e-22
-1.10483e-20
-2.60047e-19
-5.40857e-18
-9.80313e-17
-1.51983e-15
-1.96445e-14
-2.04054e-13
-1.61024e-12
-8.77479e-12
-2.72152e-11
-2.72357e-11
-8.82186e-12
-1.82562e-12
5.19433e-25
5.18707e-25
5.62306e-25
2.06922e-24
4.14601e-23
9.62278e-22
2.0153e-20
3.70879e-19
5.85809e-18
7.66623e-17
7.80956e-16
5.34434e-15
1.06284e-14
-2.39331e-13
-2.88978e-12
-1.30034e-11
-1.30992e-11
-3.02076e-12
-2.81891e-13
-2.07854e-24
-2.32336e-24
-2.42561e-24
5.07451e-24
2.31818e-22
6.20864e-21
1.48951e-19
3.21211e-18
6.15509e-17
1.03225e-15
1.48559e-14
1.78689e-13
1.73057e-12
1.27556e-11
6.51074e-11
1.90753e-10
1.90656e-10
6.51337e-11
1.44311e-11
-1.30502e-23
-1.36879e-23
-1.42245e-23
-5.08267e-24
3.1578e-22
9.69244e-21
2.5565e-19
6.0144e-18
1.25081e-16
2.2678e-15
3.51814e-14
4.55166e-13
4.73376e-12
3.74103e-11
2.04202e-10
6.34376e-10
6.34846e-10
2.05284e-10
4.24003e-11
-7.19164e-24
-5.52285e-24
-4.10904e-24
-3.53057e-23
-9.23496e-22
-2.1857e-20
-4.61143e-19
-8.56684e-18
-1.37217e-16
-1.83649e-15
-1.94992e-14
-1.47566e-13
-5.46216e-13
2.79189e-12
5.00585e-11
2.44082e-10
2.46047e-10
5.27127e-11
3.33982e-12
1.58075e-22
1.71067e-22
1.83337e-22
2.89808e-23
-4.94262e-21
-1.36093e-19
-3.26546e-18
-7.03791e-17
-1.3483e-15
-2.26155e-14
-3.25659e-13
-3.92092e-12
-3.80273e-11
-2.80814e-10
-1.43661e-09
-4.21915e-09
-4.21731e-09
-1.43755e-09
-3.17755e-10
5.24917e-22
5.36695e-22
5.42455e-22
3.20555e-22
-7.00803e-21
-2.17781e-19
-5.6822e-18
-1.32401e-16
-2.73153e-15
-4.91926e-14
-7.58845e-13
-9.77119e-12
-1.01219e-10
-7.97309e-10
-4.34073e-09
-1.34599e-08
-1.34687e-08
-4.36213e-09
-9.03265e-10
-6.77791e-22
-8.17256e-22
-9.94054e-22
-6.02777e-22
1.50176e-20
3.82209e-19
7.95626e-18
1.44421e-16
2.23664e-15
2.83666e-14
2.72017e-13
1.56339e-12
-2.1999e-12
-1.50148e-10
-1.47018e-09
-6.22341e-09
-6.25922e-09
-1.5196e-09
-1.72319e-10
-8.63164e-21
-9.14169e-21
-9.70274e-21
-7.03335e-21
8.87133e-20
2.61017e-18
6.25031e-17
1.34143e-15
2.55947e-14
4.27681e-13
6.13669e-12
7.36403e-11
7.11997e-10
5.24273e-09
2.67519e-08
7.84027e-08
7.83665e-08
2.67669e-08
5.93282e-09
-1.4058e-20
-1.35848e-20
-1.26373e-20
-6.39431e-21
1.55147e-19
4.66013e-18
1.1923e-16
2.73316e-15
5.55934e-14
9.88827e-13
1.50874e-11
1.92394e-10
1.97591e-09
1.54466e-08
8.35439e-08
2.57722e-07
2.57854e-07
8.39057e-08
1.74916e-08
7.2194e-20
7.97553e-20
8.97482e-20
9.30719e-20
-9.26214e-20
-4.4005e-18
-8.63449e-17
-1.3842e-15
-1.71403e-14
-1.25637e-13
6.05655e-13
3.76018e-11
6.72433e-10
7.34201e-09
5.00385e-08
1.8088e-07
1.81451e-07
5.08826e-08
8.33174e-09
3.60196e-19
3.73092e-19
3.87086e-19
3.46402e-19
-1.22842e-18
-4.24003e-17
-1.012e-15
-2.15409e-14
-4.07563e-13
-6.75321e-12
-9.60833e-11
-1.14317e-09
-1.0957e-08
-7.99703e-08
-4.04472e-07
-1.17599e-06
-1.17529e-06
-4.04507e-07
-9.05028e-08
3.25995e-20
-2.76856e-20
-1.16035e-19
-3.2052e-19
-3.60553e-18
-9.08397e-17
-2.2609e-15
-5.08428e-14
-1.01667e-12
-1.78054e-11
-2.67864e-10
-3.37195e-09
-3.42228e-08
-2.64663e-07
-1.4177e-06
-4.33933e-06
-4.34079e-06
-1.4228e-06
-2.99595e-07
-4.24906e-18
-4.54797e-18
-4.93794e-18
-5.31062e-18
-4.89998e-18
3.54393e-18
-1.06231e-16
-9.46803e-15
-3.24835e-13
-7.9346e-12
-1.51484e-10
-2.29294e-09
-2.70201e-08
-2.36607e-07
-1.40592e-06
-4.66247e-06
-4.67012e-06
-1.41886e-06
-2.67838e-07
-1.08424e-17
-1.08349e-17
-1.07397e-17
-9.82697e-18
1.14087e-17
5.47483e-16
1.29782e-14
2.72252e-13
5.07239e-12
8.27037e-11
1.15684e-09
1.3517e-08
1.27076e-07
9.0846e-07
4.49561e-06
1.28027e-05
1.27907e-05
4.49067e-06
1.02833e-06
2.33209e-17
2.68241e-17
3.15711e-17
3.85876e-17
9.73471e-17
1.53037e-15
3.63737e-14
8.01805e-13
1.57529e-11
2.71371e-10
4.01944e-09
4.98591e-08
4.9905e-07
3.80933e-06
2.01613e-05
6.10959e-05
6.11043e-05
2.02179e-05
4.31125e-06
1.7979e-16
1.87632e-16
1.97487e-16
2.08334e-16
2.49987e-16
1.26163e-15
2.91044e-14
7.12394e-13
1.54267e-11
2.89932e-10
4.64634e-09
6.19368e-08
6.62369e-07
5.37359e-06
3.00539e-05
9.53124e-05
9.53932e-05
3.02243e-05
6.07893e-06
1.52886e-16
1.30237e-16
9.88554e-17
5.52888e-17
-1.77949e-16
-4.97561e-15
-1.11895e-13
-2.26668e-12
-4.06846e-11
-6.36207e-10
-8.48606e-09
-9.38586e-08
-8.27367e-07
-5.47951e-06
-2.47695e-05
-6.39828e-05
-6.38165e-05
-2.46163e-05
-6.20935e-06
-1.66321e-15
-1.80108e-15
-1.97934e-15
-2.19305e-15
-3.07814e-15
-2.13795e-14
-4.549e-13
-9.79816e-12
-1.88986e-10
-3.19827e-09
-4.65567e-08
-5.67789e-07
-5.58948e-06
-4.1981e-05
-0.000218795
-0.000654316
-0.000654258
-0.000219219
-4.75135e-05
-5.36041e-15
-5.39663e-15
-5.42682e-15
-5.45415e-15
-6.3623e-15
-3.27457e-14
-6.97839e-13
-1.57205e-11
-3.17051e-10
-5.60358e-09
-8.51011e-08
-1.08182e-06
-1.10913e-05
-8.66677e-05
-0.000469076
-0.00144919
-0.00144976
-0.000470854
-9.80336e-05
6.69061e-15
8.16402e-15
1.00677e-14
1.21922e-14
1.50472e-14
2.93473e-14
2.33849e-13
2.8126e-12
1.77525e-11
-3.19145e-10
-1.38053e-08
-2.82089e-07
-3.9165e-06
-3.80787e-05
-0.000243133
-0.000846134
-0.000847813
-0.000245779
-4.29322e-05
7.22113e-14
7.55925e-14
7.97533e-14
8.41265e-14
9.39852e-14
2.48038e-13
3.76372e-12
7.7665e-11
1.45996e-09
2.40866e-08
3.41594e-07
4.05548e-06
3.88321e-05
0.000283475
0.00143576
0.00418409
0.00418211
0.00143654
0.000320992
7.38246e-14
6.39486e-14
5.11145e-14
3.66185e-14
3.28938e-14
3.72167e-13
9.04016e-12
1.98595e-10
3.87909e-09
6.6483e-08
9.80604e-07
1.21243e-05
0.000121068
0.000922767
0.00488077
0.0147919
0.0147932
0.00489334
0.00104396
-6.36362e-13
-6.93752e-13
-7.64623e-13
-8.39003e-13
-9.03322e-13
-6.15822e-13
8.65739e-12
2.22729e-10
4.57415e-09
8.18665e-08
1.25809e-06
1.61763e-05
0.000167686
0.00132431
0.00724009
0.0225615
0.0225715
0.0072688
0.00149691
-2.02182e-12
-2.01973e-12
-2.01108e-12
-1.98672e-12
-1.95759e-12
-2.2754e-12
-1.03171e-11
-1.61397e-10
-2.59327e-09
-3.54916e-08
-3.93233e-07
-3.26822e-06
-1.69049e-05
-1.11153e-05
0.00053872
0.00319923
0.00321986
0.00056534
-1.60712e-05
3.17359e-12
3.83491e-12
4.64855e-12
5.53156e-12
6.39315e-12
5.02473e-12
-5.01104e-11
-1.24037e-09
-2.3704e-08
-3.94758e-07
-5.65453e-06
-6.78796e-05
-0.000657987
-0.00486842
-0.0250146
-0.0739032
-0.0738835
-0.0250466
-0.00551162
2.82172e-11
2.94477e-11
3.08715e-11
3.22325e-11
3.32969e-11
2.92776e-11
-9.368e-11
-2.78589e-09
-5.48977e-08
-9.38902e-07
-1.38185e-05
-0.000170565
-0.00170117
-0.0129571
-0.0685181
-0.20769
-0.207701
-0.0686852
-0.0146557
1.61471e-11
1.07843e-11
4.13285e-12
-3.45438e-12
-1.22457e-11
-2.79714e-11
-1.90053e-10
-3.578e-09
-7.05918e-08
-1.2355e-06
-1.86214e-05
-0.000235262
-0.00240027
-0.0186872
-0.100888
-0.311259
-0.311338
-0.10121
-0.0211202
-2.90227e-10
-3.14869e-10
-3.43772e-10
-3.73695e-10
-4.04228e-10
-4.35894e-10
-4.95465e-10
-1.36378e-09
-2.17837e-08
-4.38433e-07
-7.5374e-06
-0.00010645
-0.00119461
-0.0100965
-0.0584658
-0.190546
-0.190707
-0.0587901
-0.011378
-7.18936e-10
-7.02941e-10
-6.80295e-10
-6.48713e-10
-6.06182e-10
-5.3728e-10
-1.12544e-10
7.4288e-09
1.45492e-07
2.3784e-06
3.33594e-05
0.000391719
0.00371027
0.026797
0.134332
0.387985
0.387782
0.134386
0.0303677
2.02217e-09
2.34465e-09
2.72468e-09
3.13305e-09
3.56981e-09
4.07543e-09
5.61055e-09
2.85324e-08
4.55888e-07
7.58484e-06
0.00010987
0.00133621
0.0131371
0.0986848
0.515109
1.54429
1.54413
0.516066
0.111657
1.21679e-08
1.2604e-08
1.30664e-08
1.34771e-08
1.3821e-08
1.41598e-08
1.62615e-08
5.82365e-08
8.6497e-07
1.44832e-05
0.000212034
0.00260724
0.0259224
0.196943
1.0395
3.14717
3.14716
1.04179
0.222715
-5.50207e-10
-3.53435e-09
-7.09803e-09
-1.10889e-08
-1.55223e-08
-2.03093e-08
-2.28677e-08
3.27238e-08
1.21608e-06
2.14061e-05
0.000316082
0.00391005
0.0391042
0.29883
1.58625
4.82644
4.82664
1.58999
0.337827
-1.43634e-07
-1.54674e-07
-1.6698e-07
-1.79475e-07
-1.91997e-07
-2.04299e-07
-2.13033e-07
-1.48448e-07
1.32537e-06
2.66132e-05
0.000396994
0.00493007
0.0494776
0.379407
2.0207
6.16622
6.1666
2.02559
0.428824
-2.70448e-07
-2.56548e-07
-2.38599e-07
-2.1607e-07
-1.88468e-07
-1.55215e-07
-1.12278e-07
1.80782e-08
1.7215e-06
2.99564e-05
0.000443319
0.00551144
0.0554146
0.425746
2.27173
6.94353
6.94401
2.27728
0.48113
1.16088e-06
1.31852e-06
1.49557e-06
1.68274e-06
1.87984e-06
2.08719e-06
2.30875e-06
2.62412e-06
4.56833e-06
3.39704e-05
0.000462272
0.00571589
0.0574879
0.442019
2.36045
7.21982
7.22033
2.36623
0.499482
5.41375e-06
5.55535e-06
5.68614e-06
5.78671e-06
5.85223e-06
5.87682e-06
5.85826e-06
5.86415e-06
7.41916e-06
3.6347e-05
0.000464185
0.00571924
0.057519
0.44232
2.36241
7.22674
7.22724
2.36818
0.499806
-2.92402e-06
-4.38077e-06
-6.0624e-06
-7.9738e-06
-1.01598e-05
-1.26612e-05
-1.54539e-05
-1.84312e-05
-2.00404e-05
5.40815e-06
0.000426989
0.00564279
0.0570807
0.439175
2.34556
7.17468
7.17517
2.35128
0.496244
-6.71086e-05
-7.10097e-05
-7.60036e-05
-8.16697e-05
-8.78223e-05
-9.44095e-05
-0.000100227
-0.000105199
-0.000107806
-8.24561e-05
0.000338871
0.00554169
0.0568324
0.437786
2.33832
7.1522
7.1527
2.34403
0.494719
-0.000107811
-9.82141e-05
-8.31554e-05
-6.25862e-05
-3.65763e-05
-1.01188e-05
1.67367e-05
4.40545e-05
7.33463e-05
0.000130206
0.000582796
0.00581844
0.0571608
0.438305
2.33967
7.15564
7.15616
2.34548
0.495405
0.000398154
0.000624746
0.000853547
0.00108333
0.00131384
0.00134887
0.00138394
0.00141911
0.00145591
0.00151995
0.00197957
0.00722417
0.0585981
0.439948
2.34237
7.16114
7.16167
2.3482
0.497098
0.00184467
0.00206294
0.00228433
0.00250554
0.00272631
0.00276034
0.00279434
0.00282838
0.00286398
0.00292674
0.00338476
0.00862448
0.0599622
0.441053
2.34221
7.15788
7.15841
2.34802
0.498148
0.00323757
0.00344188
0.00365119
0.00386043
0.00406923
0.00410136
0.00413345
0.00416558
0.00419926
0.00426006
0.00471559
0.00994599
0.0612052
0.441705
2.33986
7.14785
7.14837
2.34564
0.498688
0.00455234
0.00474277
0.00493982
0.00513699
0.00533372
0.00536389
0.00539402
0.00542418
0.0054559
0.00551472
0.00596806
0.011193
0.0624091
0.442554
2.33873
7.14126
7.14176
2.34449
0.499465
0.00578875
0.00596557
0.00615038
0.00633553
0.00652028
0.00654856
0.00657679
0.00660507
0.00663491
0.00669195
0.00714479
0.0123846
0.0637594
0.445046
2.34662
7.16189
7.16239
2.35239
0.502147
0.00695202
0.0071156
0.00728835
0.00746171
0.00763471
0.00766134
0.00768794
0.00771459
0.00774283
0.00779855
0.00825413
0.0135476
0.0654766
0.450924
2.37317
7.23999
7.24051
2.37907
0.508736
0.00805436
0.00820527
0.00836642
0.00852852
0.00869034
0.00871591
0.0087415
0.00876718
0.00879451
0.00884978
0.00931125
0.0146915
0.0675252
0.459923
2.41755
7.37464
7.37523
2.42372
0.518928
0.00911568
0.00925497
0.00940552
0.00955743
0.00970921
0.00973497
0.00976086
0.00978693
0.00981473
0.00987073
0.0103366
0.0157725
0.0692153
0.466573
2.45081
7.47911
7.47979
2.45725
0.526419
0.0101501
0.0102778
0.0104177
0.0105595
0.0107012
0.010727
0.0107524
0.0107774
0.0108036
0.0108569
0.0113109
0.0166334
0.0690304
0.459083
2.40952
7.35952
7.36024
2.41581
0.517613
0.0110698
0.011177
0.0112929
0.0114077
0.0115196
0.0115252
0.0115304
0.0115354
0.0115416
0.011573
0.0119737
0.0168513
0.0649788
0.42343
2.21808
6.78231
6.78289
2.22333
0.476389
0.0115258
0.0115117
0.011507
0.0115035
0.0114995
0.0114946
0.0114895
0.0114843
0.0114802
0.0114975
0.0118254
0.0158868
0.0558311
0.352623
1.83865
5.62732
5.6275
1.84176
0.394898
0.0112251
0.0112037
0.0111894
0.0111767
0.011164
0.011151
0.0111379
0.0111247
0.0111122
0.0111161
0.011352
0.0143208
0.0431676
0.255603
1.31588
4.026
4.02558
1.31597
0.28334
0.0105961
0.0105699
0.0105476
0.0105266
0.0105056
0.0104845
0.0104631
0.0104416
0.0104207
0.010411
0.0105533
0.0124026
0.0298053
0.154707
0.77051
2.34807
2.34697
0.767405
0.167413
0.00965114
0.00962155
0.00959298
0.0095653
0.00953768
0.00950995
0.00948211
0.00945418
0.00942668
0.00940656
0.00947613
0.0104496
0.0188468
0.0744864
0.336738
1.00893
1.00727
0.331084
0.0753439
0.00847729
0.00844651
0.00841465
0.00838338
0.00835221
0.00832101
0.00828977
0.00825853
0.00822767
0.00820207
0.00823117
0.00870832
0.0119601
0.0277659
0.0855191
0.231405
0.229418
0.0783795
0.0218216
0.00720115
0.00717133
0.00713909
0.0071072
0.00707542
0.00704367
0.00701194
0.00698025
0.00694897
0.00692229
0.00693884
0.00724923
0.00872827
0.010592
-0.00402335
-0.0457355
-0.0478471
-0.0117362
0.00222381
0.00592863
0.00590098
0.00587007
0.00583931
0.00580865
0.00577804
0.00574747
0.00571696
0.00568688
0.00566152
0.00568022
0.00599754
0.00748926
0.00919104
-0.00704039
-0.0537319
-0.055868
-0.0148677
0.000687564
0.00471436
0.00468921
0.00466025
0.00463122
0.00460227
0.00457338
0.00454453
0.00451576
0.00448743
0.00446405
0.0044877
0.00484542
0.00671371
0.0111747
0.00870816
-0.00265128
-0.00478047
0.000906209
0.00306559
0.0035768
0.00355425
0.00352755
0.00350061
0.00347374
0.00344693
0.00342019
0.00339354
0.00336735
0.00334607
0.00337193
0.00373884
0.00572484
0.0112688
0.0147934
0.0190796
0.0170059
0.00718752
0.00352679
0.00253465
0.00251514
0.00249148
0.00246748
0.00244356
0.00241973
0.002396
0.00237238
0.00234923
0.0023306
0.00235514
0.002692
0.0045092
0.00953175
0.0123202
0.0151261
0.0132243
0.00532929
0.00241392
0.00162841
0.00161272
0.00159334
0.00157362
0.00155399
0.00153448
0.00151511
0.00149588
0.00147708
0.00146205
0.00148248
0.00175893
0.00323986
0.00721356
0.00849775
0.00815558
0.00658386
0.00270492
0.00129657
0.000910379
0.000899169
0.000885126
0.000870814
0.000856608
0.000842544
0.000828623
0.00081486
0.00080145
0.00079075
0.000805267
0.00100197
0.002057
0.00488063
0.0056788
0.0051149
0.00399582
0.00154339
0.00065783
0.000414825
0.000408059
0.000399504
0.000390789
0.000382173
0.000373684
0.000365322
0.000357094
0.000349113
0.000342736
0.000350985
0.000465158
0.00108157
0.00275197
0.00333663
0.00331945
0.00267073
0.000932967
0.000302733
0.000133225
0.000130037
0.000125983
0.000121864
0.000117817
0.000113858
0.000109986
0.000106203
0.000102555
9.96135e-05
0.000102887
0.000151218
0.000414396
0.00113383
0.00140794
0.00146568
0.00119
0.000383112
9.11282e-05
1.39496e-05
1.29798e-05
1.17418e-05
1.04945e-05
9.28522e-06
8.11892e-06
6.99521e-06
5.91388e-06
4.88387e-06
4.02566e-06
4.52e-06
1.47786e-05
7.18948e-05
0.000228425
0.00027803
0.000263856
0.000203899
5.35121e-05
8.40119e-08
-1.35743e-05
-1.35986e-05
-1.36293e-05
-1.36524e-05
-1.36639e-05
-1.36636e-05
-1.36518e-05
-1.36293e-05
-1.35994e-05
-1.35989e-05
-1.39699e-05
-1.70821e-05
-3.31084e-05
-7.62348e-05
-9.44987e-05
-0.000102544
-8.58055e-05
-3.30229e-05
-1.36063e-05
-8.24887e-06
-8.10051e-06
-7.91043e-06
-7.7148e-06
-7.5197e-06
-7.32587e-06
-7.13351e-06
-6.94293e-06
-6.75744e-06
-6.61619e-06
-6.89542e-06
-1.02463e-05
-2.82311e-05
-7.69261e-05
-9.24158e-05
-8.77654e-05
-6.88984e-05
-2.22341e-05
-5.4719e-06
-1.02959e-06
-9.64629e-07
-8.81591e-07
-7.9768e-07
-7.1605e-07
-6.37058e-07
-5.60709e-07
-4.87017e-07
-4.16688e-07
-3.58854e-07
-4.03066e-07
-1.18948e-06
-5.5538e-06
-1.75634e-05
-2.15562e-05
-2.09976e-05
-1.64334e-05
-4.4284e-06
-1.5836e-07
9.24063e-07
9.22351e-07
9.19991e-07
9.16966e-07
9.13195e-07
9.08686e-07
9.03472e-07
8.97607e-07
8.91432e-07
8.88719e-07
9.2524e-07
1.25091e-06
2.94526e-06
7.47553e-06
8.83362e-06
8.13645e-06
6.35986e-06
2.25827e-06
7.74709e-07
3.68669e-07
3.58333e-07
3.45068e-07
3.31494e-07
3.1808e-07
3.04882e-07
2.91912e-07
2.79186e-07
2.66905e-07
2.57487e-07
2.74397e-07
4.84438e-07
1.62313e-06
4.74655e-06
5.88332e-06
6.00185e-06
4.81537e-06
1.44745e-06
2.39472e-07
-7.23338e-08
-7.39589e-08
-7.60121e-08
-7.80148e-08
-7.98713e-08
-8.15724e-08
-8.31212e-08
-8.45235e-08
-8.58011e-08
-8.71624e-08
-9.05147e-08
-1.08814e-07
-1.96391e-07
-4.24235e-07
-5.05664e-07
-5.01591e-07
-4.10365e-07
-1.74419e-07
-8.61068e-08
-5.98617e-08
-5.85504e-08
-5.6862e-08
-5.51219e-08
-5.33873e-08
-5.16658e-08
-4.99593e-08
-4.82713e-08
-4.66355e-08
-4.54543e-08
-4.86261e-08
-8.38624e-08
-2.73343e-07
-7.92197e-07
-9.78367e-07
-9.90724e-07
-7.93548e-07
-2.41134e-07
-4.3214e-08
7.85142e-09
8.13901e-09
8.50318e-09
8.86226e-09
9.20024e-09
9.51549e-09
9.80837e-09
1.00796e-08
1.03314e-08
1.05845e-08
1.10233e-08
1.28764e-08
2.1212e-08
4.28676e-08
5.52011e-08
6.7335e-08
5.88124e-08
2.47711e-08
1.18665e-08
8.04773e-09
7.86238e-09
7.62375e-09
7.37801e-09
7.13332e-09
6.89077e-09
6.65062e-09
6.41336e-09
6.18402e-09
6.0226e-09
6.51242e-09
1.18089e-08
4.02543e-08
1.17919e-07
1.42914e-07
1.36827e-07
1.07194e-07
3.1914e-08
5.12296e-09
-1.73417e-09
-1.75752e-09
-1.78676e-09
-1.81475e-09
-1.84004e-09
-1.86251e-09
-1.88221e-09
-1.89928e-09
-1.91454e-09
-1.93694e-09
-2.0512e-09
-2.84895e-09
-6.88449e-09
-1.76304e-08
-2.09237e-08
-1.94465e-08
-1.52457e-08
-5.38368e-09
-1.8085e-09
-8.23432e-10
-7.96032e-10
-7.60884e-10
-7.24975e-10
-6.89572e-10
-6.54833e-10
-6.20783e-10
-5.87469e-10
-5.55487e-10
-5.32121e-10
-5.88672e-10
-1.2362e-09
-4.74768e-09
-1.44232e-08
-1.78262e-08
-1.79201e-08
-1.4275e-08
-4.1249e-09
-5.17201e-10
3.89672e-10
3.87205e-10
3.83955e-10
3.80409e-10
3.76632e-10
3.72638e-10
3.68441e-10
3.64067e-10
3.59759e-10
3.58367e-10
3.87459e-10
6.42847e-10
1.98697e-09
5.65018e-09
6.92915e-09
6.91204e-09
5.51848e-09
1.72036e-09
3.59818e-10
7.08699e-12
4.32955e-12
8.14526e-13
-2.72227e-12
-6.14256e-12
-9.4305e-12
-1.25863e-11
-1.56108e-11
-1.84875e-11
-2.0981e-11
-2.06999e-11
1.92373e-14
1.2211e-10
4.68027e-10
5.79745e-10
5.62864e-10
4.35729e-10
9.3058e-11
-2.49639e-11
-5.16824e-11
-5.05437e-11
-4.9082e-11
-4.75797e-11
-4.60867e-11
-4.46092e-11
-4.31486e-11
-4.17081e-11
-4.03263e-11
-3.94732e-11
-4.37457e-11
-8.60738e-11
-3.12775e-10
-9.35254e-10
-1.14714e-09
-1.133e-09
-8.98038e-10
-2.64144e-10
-3.90912e-11
1.72571e-11
1.71693e-11
1.70543e-11
1.69283e-11
1.67933e-11
1.66495e-11
1.64976e-11
1.63386e-11
1.61847e-11
1.61787e-11
1.77101e-11
3.06798e-11
9.88372e-11
2.84817e-10
3.48482e-10
3.44458e-10
2.73909e-10
8.42394e-11
1.65457e-11
-1.18814e-12
-1.2799e-12
-1.39676e-12
-1.51381e-12
-1.62629e-12
-1.73368e-12
-1.83601e-12
-1.93342e-12
-2.02641e-12
-2.11985e-12
-2.25693e-12
-2.72115e-12
-4.65017e-12
-9.39403e-12
-1.11314e-11
-1.09709e-11
-9.00277e-12
-4.16935e-12
-2.28249e-12
-1.93304e-12
-1.87842e-12
-1.80866e-12
-1.73756e-12
-1.66756e-12
-1.59896e-12
-1.53176e-12
-1.46609e-12
-1.40356e-12
-1.36454e-12
-1.54951e-12
-3.40213e-12
-1.33731e-11
-4.08716e-11
-5.02295e-11
-4.97033e-11
-3.93871e-11
-1.13338e-11
-1.4216e-12
8.02362e-13
7.89939e-13
7.74112e-13
7.57891e-13
7.41784e-13
7.25846e-13
7.10088e-13
6.94554e-13
6.79911e-13
6.74391e-13
7.58687e-13
1.51187e-12
5.51176e-12
1.64954e-11
2.0244e-11
2.00315e-11
1.58987e-11
4.69566e-12
7.24058e-13
)
;

boundaryField
{
    top
    {
        type            zeroGradient;
    }
    left
    {
        type            fixedValue;
        value           uniform 0;
    }
    bottom
    {
        type            zeroGradient;
    }
    right
    {
        type            zeroGradient;
    }
    frontAndBack
    {
        type            empty;
    }
}


// ************************************************************************* //
