/*--------------------------------*- C++ -*----------------------------------*\
| =========                 |                                                 |
| \\      /  F ield         | OpenFOAM: The Open Source CFD Toolbox           |
|  \\    /   O peration     | Version:  v1806                                 |
|   \\  /    A nd           | Web:      www.OpenFOAM.com                      |
|    \\/     M anipulation  |                                                 |
\*---------------------------------------------------------------------------*/
FoamFile
{
    version     2.0;
    format      ascii;
    class       volScalarField;
    location    "0.045";
    object      T;
}
// * * * * * * * * * * * * * * * * * * * * * * * * * * * * * * * * * * * * * //

dimensions      [0 0 0 1 0 0 0];


internalField   nonuniform List<scalar> 
1881
(
3.60088e-117
1.11884e-115
3.34746e-114
9.32238e-113
2.4025e-111
5.69073e-110
1.22895e-108
2.39624e-107
4.16838e-106
6.37264e-105
8.39744e-104
9.29233e-103
8.32316e-102
5.70886e-101
2.73332e-100
7.61318e-100
7.58509e-100
2.70065e-100
6.36166e-101
4.12522e-115
1.28429e-113
3.8499e-112
1.07423e-110
2.77378e-109
6.58289e-108
1.42436e-106
2.78265e-105
4.84993e-104
7.42894e-103
9.80826e-102
1.08743e-100
9.75869e-100
6.70596e-99
3.21643e-98
8.97239e-98
8.94037e-98
3.17944e-98
7.47737e-99
4.69442e-113
1.46437e-111
4.39813e-110
1.22956e-108
3.18095e-107
7.56371e-106
1.63974e-104
3.20957e-103
5.60477e-102
8.60168e-101
1.13784e-99
1.26392e-98
1.13639e-97
7.82351e-97
3.75907e-96
1.0502e-95
1.04657e-95
3.71753e-96
8.72873e-97
5.26018e-111
1.64409e-109
4.94737e-108
1.38576e-106
3.59196e-105
8.55745e-104
1.85874e-102
3.64526e-101
6.37788e-100
9.80702e-99
1.29977e-97
1.44656e-96
1.30307e-95
8.98764e-95
4.32607e-94
1.21043e-93
1.20639e-93
4.28016e-94
1.00335e-94
5.80188e-109
1.81698e-107
5.47814e-106
1.53739e-104
3.99266e-103
9.53043e-102
2.07408e-100
4.07542e-99
7.14428e-98
1.10067e-96
1.46158e-95
1.62975e-94
1.47087e-93
1.01639e-92
4.90094e-92
1.37336e-91
1.36893e-91
4.85107e-92
1.13533e-92
6.29726e-107
1.97602e-105
5.96912e-104
1.6784e-102
4.3673e-101
1.04449e-99
2.27748e-98
4.48375e-97
7.8753e-96
1.21564e-94
1.61736e-93
1.80692e-92
1.63387e-91
1.13113e-90
5.4639e-90
1.53344e-89
1.52867e-89
5.41064e-90
1.26421e-90
6.72367e-105
2.114e-103
6.39826e-102
1.80255e-100
4.69941e-99
1.12609e-97
2.46018e-96
4.85282e-95
8.54007e-94
1.3208e-92
1.76068e-91
1.97082e-90
1.78547e-89
1.23839e-88
5.99267e-88
1.6844e-87
1.67935e-87
5.9368e-88
1.38487e-88
7.0597e-103
2.22406e-101
6.74438e-100
1.90374e-98
4.97284e-97
1.19392e-95
2.61344e-94
5.16516e-93
9.10738e-92
1.41128e-90
1.88493e-89
2.11396e-88
1.91881e-87
1.33337e-86
6.46378e-86
1.81959e-85
1.81433e-85
6.40622e-86
1.49189e-86
7.28682e-101
2.30018e-99
6.98872e-98
1.97653e-96
5.17303e-95
1.2444e-93
2.72923e-92
5.40451e-91
9.54797e-90
1.48243e-88
1.9838e-87
2.22914e-86
2.02723e-85
1.41135e-84
6.85407e-84
1.93241e-83
1.92703e-83
6.79584e-84
1.58e-84
7.391e-99
2.33772e-97
7.11656e-96
2.0166e-94
5.28816e-93
1.27457e-91
2.80086e-90
5.55717e-89
9.83683e-88
1.53026e-86
2.05178e-85
2.30999e-84
2.10478e-83
1.4681e-82
7.14244e-82
2.0168e-81
2.0114e-81
7.08466e-82
1.64439e-82
7.36405e-97
2.33384e-95
7.11859e-94
2.0211e-92
5.31031e-91
1.28241e-89
2.82359e-88
5.61322e-87
9.95545e-86
1.55173e-84
2.08463e-83
2.35153e-82
2.14674e-81
1.50018e-80
7.31167e-80
2.06776e-79
2.06244e-79
7.25544e-80
1.6812e-80
7.20455e-95
2.28786e-93
6.99193e-92
1.98902e-90
5.23622e-89
1.26699e-87
2.7951e-86
5.56746e-85
9.89364e-84
1.54512e-82
2.07979e-81
2.35063e-80
2.15005e-79
1.50533e-78
7.34999e-78
2.08179e-77
2.07665e-77
7.29635e-78
1.68782e-78
6.91822e-93
2.20134e-91
6.74065e-90
1.92128e-88
5.0678e-87
1.22864e-85
2.71582e-84
5.42016e-83
9.65078e-82
1.51014e-80
2.03669e-79
2.3064e-78
2.11366e-77
1.48266e-76
7.25233e-76
2.0573e-75
2.05243e-75
7.20221e-76
1.66322e-76
6.51768e-91
2.07805e-89
6.37559e-88
1.82079e-86
4.81215e-85
1.16895e-83
2.58896e-82
5.17713e-81
9.23618e-80
1.44811e-78
1.95685e-77
2.22031e-76
2.0387e-75
1.43278e-74
7.02106e-74
1.99478e-73
1.99025e-73
6.97521e-74
1.60804e-74
6.02154e-89
1.92373e-87
5.91369e-86
1.69219e-84
4.48107e-83
1.09067e-81
2.42034e-80
4.84948e-79
8.66867e-78
1.3618e-76
1.84384e-75
2.09618e-74
1.92845e-73
1.35787e-72
6.66604e-72
1.89685e-71
1.89273e-71
6.625e-72
1.52469e-72
5.453e-87
1.74561e-85
5.37666e-84
1.54155e-82
4.09019e-81
9.97497e-80
2.21794e-78
4.45272e-77
7.97516e-76
1.25533e-74
1.70302e-73
1.93987e-72
1.78812e-71
1.26146e-70
6.20397e-70
1.76811e-69
1.76444e-69
6.16806e-70
1.41708e-70
4.83798e-85
1.55185e-83
4.78929e-82
1.37585e-80
3.65774e-79
8.93795e-78
1.99129e-76
4.0056e-75
7.18853e-74
1.13374e-72
1.54111e-71
1.75889e-70
1.62444e-69
1.14818e-68
5.65713e-68
1.61477e-67
1.61157e-67
5.62642e-68
1.29039e-68
4.20311e-83
1.35094e-81
4.17745e-80
1.20245e-78
3.20308e-77
7.84244e-76
1.75068e-74
3.52858e-73
6.34501e-72
1.00269e-70
1.36566e-69
1.56171e-68
1.44515e-67
1.0234e-66
5.05155e-66
1.44417e-65
1.44144e-65
5.02592e-66
1.15066e-66
3.57374e-81
1.15098e-79
3.56615e-78
1.02853e-76
2.7452e-75
6.7347e-74
1.50638e-72
3.04222e-71
5.48131e-70
8.67918e-69
1.18444e-67
1.35715e-66
1.2583e-65
8.92794e-65
4.41492e-64
1.26414e-63
1.26186e-63
4.39405e-64
1.00423e-64
2.97219e-79
9.59183e-78
2.97779e-76
8.60536e-75
2.30139e-73
5.65712e-72
1.26787e-70
2.56563e-69
4.63181e-68
7.34866e-67
1.00486e-65
1.15365e-64
1.07172e-63
7.61869e-63
3.77439e-62
1.08243e-61
1.08058e-61
3.75783e-62
8.57316e-63
2.41644e-77
7.81418e-76
2.43073e-74
7.03839e-73
1.88607e-71
4.64544e-70
1.04321e-68
2.11521e-67
3.82628e-66
6.08273e-65
8.33406e-64
9.58705e-63
8.92366e-62
6.35589e-61
3.15457e-60
9.06099e-60
9.04625e-60
3.14178e-60
7.15499e-61
1.91933e-75
6.21933e-74
1.93847e-72
5.62417e-71
1.5101e-69
3.72685e-68
8.38596e-67
1.70374e-65
3.08811e-64
4.91904e-63
6.75309e-62
7.78379e-61
7.25942e-60
5.1805e-59
2.57593e-58
7.4106e-58
7.39916e-58
2.56633e-58
5.83405e-59
1.4884e-73
4.83279e-72
1.5093e-70
4.38776e-69
1.18048e-67
2.91917e-66
6.5817e-65
1.33985e-63
2.43341e-62
3.88392e-61
5.34268e-60
6.17035e-59
5.766e-58
4.12271e-57
2.05374e-56
5.91766e-56
5.90901e-56
2.04674e-56
4.64453e-57
1.12611e-71
3.66394e-70
1.14655e-68
3.33984e-67
9.00344e-66
2.2309e-64
5.03998e-63
1.02806e-61
1.87088e-60
2.99206e-59
4.12408e-58
4.77245e-57
4.46851e-56
3.20118e-55
1.59763e-54
4.6107e-54
4.60433e-54
1.59268e-54
3.60765e-55
8.30662e-70
2.7082e-68
8.49167e-67
2.47853e-65
6.69494e-64
1.66222e-62
3.76278e-61
7.69078e-60
1.4024e-58
2.24733e-57
3.10379e-56
3.59893e-55
3.37638e-54
2.42349e-53
1.21174e-52
3.50259e-52
3.49803e-52
1.20836e-52
2.73215e-53
5.96918e-68
1.95013e-66
6.12695e-65
1.79191e-63
4.84997e-62
1.20658e-60
2.73683e-59
5.60509e-58
1.02413e-56
1.64447e-55
2.27574e-54
2.64406e-53
2.48547e-52
1.78748e-51
8.95399e-51
2.59231e-50
2.58913e-50
8.93164e-51
2.0158e-51
4.17543e-66
1.36692e-64
4.30322e-63
1.26107e-61
3.42007e-60
8.52558e-59
1.93772e-57
3.97652e-56
7.28035e-55
1.17138e-53
1.6243e-52
1.89096e-51
1.78108e-50
1.2834e-49
6.44089e-49
1.8677e-48
1.86555e-48
6.42668e-49
1.44779e-49
2.8406e-64
9.31849e-63
2.93948e-61
8.63152e-60
2.34563e-58
5.85902e-57
1.33435e-55
2.74383e-54
5.03367e-53
8.11532e-52
1.12759e-50
1.31534e-49
1.24137e-48
8.96255e-48
4.5064e-47
1.30881e-46
1.3074e-46
4.49773e-47
1.01136e-47
1.87778e-62
6.17273e-61
1.95109e-59
5.74076e-58
1.56321e-56
3.91256e-55
8.92862e-54
1.83972e-52
3.38187e-51
5.46333e-50
7.60639e-49
8.8908e-48
8.40762e-47
6.08221e-46
3.06403e-45
8.91274e-45
8.90375e-45
3.05897e-45
6.86528e-46
1.205e-60
3.96933e-59
1.25716e-57
3.70648e-56
1.01132e-54
2.53637e-53
5.79984e-52
1.19747e-50
2.20572e-49
3.57051e-48
4.98117e-47
5.83407e-46
5.52819e-45
4.00738e-44
2.02297e-43
5.89272e-43
5.88718e-43
2.02017e-43
4.52448e-44
7.49868e-59
2.47523e-57
7.8554e-56
2.32069e-54
6.3449e-53
1.59452e-51
3.65355e-50
7.55867e-49
1.39513e-47
2.26297e-46
3.16346e-45
3.71271e-44
3.52546e-43
2.56148e-42
1.29652e-41
3.77967e-41
3.77636e-41
1.29505e-41
2.89258e-42
4.52024e-57
1.49518e-55
4.75474e-54
1.40753e-52
3.85608e-51
9.7103e-50
2.22947e-48
4.62187e-47
8.54816e-46
1.38938e-44
1.94625e-43
2.28902e-42
2.17875e-41
1.58821e-40
8.08039e-40
2.3518e-39
2.3499e-39
8.07314e-40
1.79351e-40
2.63636e-55
8.73857e-54
2.78454e-52
8.25974e-51
2.26746e-49
5.72151e-48
1.31634e-46
2.73444e-45
5.06771e-44
8.25385e-43
1.15866e-41
1.36597e-40
1.30464e-39
9.57886e-39
4.95005e-38
1.42412e-37
1.42306e-37
4.9465e-38
1.08094e-38
1.48581e-53
4.93519e-52
1.5758e-50
4.68378e-49
1.28841e-47
3.25772e-46
7.5103e-45
1.56332e-43
2.90328e-42
4.73862e-41
6.66762e-40
7.88695e-39
7.58984e-38
5.70205e-37
3.1227e-36
8.53736e-36
8.53166e-36
3.12045e-36
6.41214e-37
8.08064e-52
2.68964e-50
8.60547e-49
2.56305e-47
7.06486e-46
1.78999e-44
4.13508e-43
8.62525e-42
1.60519e-40
2.62595e-39
3.70656e-38
4.41508e-37
4.34991e-36
3.55229e-35
2.3708e-34
5.44159e-34
5.43855e-34
2.36797e-34
3.94137e-35
4.23463e-50
1.41245e-48
4.52835e-47
1.35148e-45
3.73289e-44
9.47728e-43
2.19388e-41
4.58576e-40
8.55341e-39
1.40335e-37
1.99286e-36
2.42344e-35
2.59404e-34
2.75651e-33
2.8118e-32
4.54915e-32
4.54742e-32
2.80609e-32
2.94658e-33
2.13493e-48
7.13592e-47
2.29248e-45
6.85592e-44
1.89755e-42
4.82754e-41
1.11986e-39
2.34592e-38
4.38746e-37
7.23509e-36
1.04472e-34
1.36327e-33
1.88781e-32
3.34911e-31
5.21817e-30
6.29863e-30
6.29732e-30
5.20553e-30
3.40098e-31
1.03371e-46
3.46241e-45
1.11461e-43
3.34023e-42
9.26399e-41
2.36175e-39
5.49045e-38
1.15306e-36
2.16562e-35
3.61689e-34
5.51483e-33
8.96883e-32
2.0806e-30
5.9931e-29
1.17864e-27
1.27258e-27
1.27242e-27
1.17585e-27
5.90975e-29
4.79791e-45
1.61044e-43
5.19497e-42
1.56002e-40
4.33563e-39
1.10768e-37
2.58116e-36
5.4399e-35
1.03131e-33
1.79105e-32
3.23918e-31
8.48298e-30
3.33575e-28
1.24883e-26
2.79807e-25
2.93233e-25
2.93206e-25
2.79204e-25
1.21981e-26
2.13035e-43
7.16571e-42
2.31628e-40
6.97007e-39
1.94122e-37
4.97072e-36
1.1618e-34
2.46523e-33
4.79896e-32
9.4088e-31
2.54832e-29
1.16816e-27
6.22725e-26
2.68252e-24
6.68793e-23
6.94596e-23
6.94545e-23
6.67511e-23
2.61291e-24
9.02858e-42
3.04331e-40
9.8577e-39
2.97255e-37
8.29695e-36
2.13018e-34
5.00367e-33
1.0801e-31
2.27632e-30
6.08483e-29
2.89375e-27
1.9096e-25
1.19122e-23
5.72167e-22
1.59645e-20
1.65022e-20
1.65012e-20
1.59376e-20
5.56544e-22
3.6432e-40
1.23064e-38
3.99451e-37
1.20711e-35
3.37743e-34
8.70399e-33
2.06677e-31
4.68167e-30
1.22033e-28
5.47018e-27
4.0252e-25
3.20241e-23
2.23451e-21
1.19919e-19
3.8325e-18
3.94483e-18
3.94466e-18
3.82688e-18
1.16408e-19
1.39589e-38
4.72523e-37
1.537e-35
4.65524e-34
1.30643e-32
3.3899e-31
8.27304e-30
2.13256e-28
8.42627e-27
6.22043e-25
5.79909e-23
5.19908e-21
4.04193e-19
2.47025e-17
9.45105e-16
9.68231e-16
9.68201e-16
9.43907e-16
2.3888e-17
5.06292e-37
1.71753e-35
5.59886e-34
1.70012e-32
4.79265e-31
1.26224e-29
3.30328e-28
1.12906e-26
7.42709e-25
7.47887e-23
7.98668e-21
7.95715e-19
6.98713e-17
5.0486e-15
2.46106e-13
2.5083e-13
2.50825e-13
2.45848e-13
4.85724e-15
1.7324e-35
5.88975e-34
1.9244e-32
5.86239e-31
1.6659e-29
4.539e-28
1.39011e-26
7.30441e-25
7.1297e-23
8.50655e-21
1.00866e-18
1.1237e-16
1.14678e-14
1.03498e-12
6.79206e-11
6.88922e-11
6.88914e-11
6.78681e-11
9.93513e-13
5.57085e-34
1.8982e-32
6.21813e-31
1.90294e-29
5.49096e-28
1.60756e-26
6.48533e-25
5.24331e-23
6.44394e-21
8.57728e-19
1.1234e-16
1.42305e-14
1.75915e-12
2.09135e-10
1.88639e-08
1.90627e-08
1.90626e-08
1.88552e-08
2.02176e-10
1.67619e-32
5.72476e-31
1.88099e-29
5.79615e-28
1.71937e-26
5.7111e-25
3.24421e-23
3.55013e-21
4.95766e-19
7.18231e-17
1.03906e-14
1.52406e-12
2.36447e-10
3.79104e-08
4.74863e-06
4.78547e-06
4.78546e-06
4.74779e-06
3.72976e-08
4.69548e-31
1.60759e-29
5.30098e-28
1.64931e-26
5.09877e-25
1.99585e-23
1.51702e-21
1.95384e-19
2.91963e-17
4.48458e-15
7.02174e-13
1.16977e-10
2.2299e-08
4.77032e-06
0.000929521
0.000934266
0.000934266
0.000929519
4.79003e-06
1.21748e-29
4.1788e-28
1.38321e-26
4.34898e-25
1.40179e-23
6.25549e-22
5.50911e-20
7.39599e-18
1.09925e-15
1.64749e-13
2.41034e-11
3.31407e-09
4.04564e-07
4.04103e-05
0.00290346
0.00294346
0.00294346
0.00290346
4.08113e-05
2.90204e-28
9.98467e-27
3.31511e-25
1.04808e-23
3.41526e-22
1.52316e-20
1.25549e-18
1.48948e-16
1.86767e-14
2.2227e-12
2.40589e-10
2.28356e-08
1.81542e-06
0.000113077
0.00492335
0.00503458
0.00503458
0.00492337
0.000114889
6.30775e-27
2.1747e-25
7.22967e-24
2.27649e-22
7.14906e-21
2.70588e-19
1.64383e-17
1.47588e-15
1.44931e-13
1.34376e-11
1.11392e-09
7.95983e-08
4.69707e-06
0.000214835
0.00682432
0.00703438
0.00703438
0.0068244
0.000219528
1.2381e-25
4.27607e-24
1.42175e-22
4.44133e-21
1.33053e-19
4.16321e-18
1.67343e-16
9.94661e-15
7.32334e-13
5.38425e-11
3.57554e-09
2.04076e-07
9.56922e-06
0.000346311
0.00869297
0.00902958
0.00902958
0.00869317
0.000355877
2.16869e-24
7.50317e-23
2.49577e-21
7.7572e-20
2.26016e-18
6.32045e-17
1.84008e-15
6.56006e-14
3.12412e-12
1.72553e-10
9.2496e-09
4.35278e-07
1.68968e-05
0.000506249
0.0105347
0.0110249
0.0110249
0.0105351
0.000523143
3.33995e-23
1.15772e-21
3.85539e-20
1.19679e-18
3.45175e-17
9.26049e-16
2.34739e-14
5.93112e-13
1.66876e-11
5.71925e-10
2.22817e-08
8.42987e-07
2.73852e-05
0.000696049
0.0123686
0.0130574
0.0130574
0.0123695
0.000723431
4.43621e-22
1.5408e-20
5.13972e-19
1.59676e-17
4.59625e-16
1.21982e-14
2.97623e-13
6.70474e-12
1.42773e-10
3.04924e-09
7.07255e-08
1.79747e-06
4.48386e-05
0.000943614
0.0143669
0.0155506
0.0155506
0.0143686
0.000988443
4.95229e-21
1.72359e-19
5.76048e-18
1.79253e-16
5.16409e-15
1.36856e-13
3.31302e-12
7.27436e-11
1.44093e-09
2.57708e-08
4.22703e-07
6.59875e-06
0.000101535
0.0014843
0.0177428
0.0224229
0.0224233
0.0177493
0.00158579
4.48146e-20
1.56296e-18
5.23402e-17
1.63182e-15
4.70911e-14
1.24944e-12
3.024e-11
6.61501e-10
1.29382e-08
2.2349e-07
3.3644e-06
4.35863e-05
0.000481387
0.00449198
0.0340895
0.0689073
0.0689103
0.0341328
0.00497316
3.11477e-19
1.08852e-17
3.65242e-16
1.14095e-14
3.29879e-13
8.76796e-12
2.1252e-10
4.65234e-09
9.09087e-08
1.5627e-06
2.31995e-05
0.000290418
0.00296843
0.0236561
0.136389
0.377861
0.377883
0.136679
0.026624
1.52289e-18
5.3322e-17
1.7925e-15
5.60983e-14
1.62495e-12
4.32683e-11
1.05058e-09
2.30347e-08
4.5066e-07
7.75036e-06
0.000114925
0.0014319
0.0144574
0.112018
0.608047
1.81649
1.8166
0.609482
0.126475
4.45584e-18
1.56254e-16
5.26055e-15
1.64881e-13
4.78308e-12
1.27551e-10
3.10154e-09
6.81011e-08
1.33416e-06
2.29719e-05
0.000340924
0.0042484
0.0428411
0.330572
1.77634
5.38986
5.39018
1.78059
0.373412
5.66624e-18
1.98661e-16
6.687e-15
2.0955e-13
6.07779e-12
1.62047e-10
3.93963e-09
8.64877e-08
1.69407e-06
2.91635e-05
0.000432725
0.00539093
0.0543394
0.418973
2.24796
6.82847
6.82888
2.25335
0.473312
5.93253e-18
2.07975e-16
6.99976e-15
2.19329e-13
6.36081e-12
1.69578e-10
4.1224e-09
9.04942e-08
1.77246e-06
3.05119e-05
0.000452721
0.00563989
0.0568451
0.438215
2.35018
7.13741
7.13783
2.35582
0.49506
5.97259e-18
2.09376e-16
7.04688e-15
2.20805e-13
6.40366e-12
1.70723e-10
4.15037e-09
9.11123e-08
1.78467e-06
3.07244e-05
0.000455912
0.0056801
0.057253
0.441339
2.36641
7.18386
7.18429
2.37209
0.498593
5.9778e-18
2.09564e-16
7.05343e-15
2.21019e-13
6.41019e-12
1.70907e-10
4.15515e-09
9.12247e-08
1.78704e-06
3.07684e-05
0.00045661
0.00568925
0.0573471
0.442039
2.36964
7.1907
7.19113
2.37533
0.499386
5.97983e-18
2.09645e-16
7.05653e-15
2.2113e-13
6.41386e-12
1.71019e-10
4.15822e-09
9.13008e-08
1.7887e-06
3.07999e-05
0.000457113
0.00569576
0.0574118
0.442486
2.37142
7.19312
7.19355
2.37711
0.499898
5.98316e-18
2.09775e-16
7.0614e-15
2.21299e-13
6.41926e-12
1.71177e-10
4.16241e-09
9.14001e-08
1.79078e-06
3.08373e-05
0.000457681
0.00570274
0.0574775
0.442915
2.37302
7.1951
7.19553
2.37872
0.500393
5.98963e-18
2.10016e-16
7.06999e-15
2.21583e-13
6.42791e-12
1.71418e-10
4.16849e-09
9.15371e-08
1.7935e-06
3.0884e-05
0.000458354
0.00571061
0.0575478
0.443352
2.37457
7.19701
7.19744
2.38028
0.5009
6.00132e-18
2.10434e-16
7.08426e-15
2.22035e-13
6.4411e-12
1.71769e-10
4.17696e-09
9.17197e-08
1.79696e-06
3.09407e-05
0.000459135
0.00571933
0.0576223
0.443786
2.37477
7.19757
7.198
2.38049
0.501409
6.01905e-18
2.11046e-16
7.10449e-15
2.22655e-13
6.45855e-12
1.72218e-10
4.18739e-09
9.19364e-08
1.80092e-06
3.10031e-05
0.000459963
0.0057282
0.0576947
0.444162
2.3742
7.19729
7.19772
2.37993
0.501857
6.03686e-18
2.11647e-16
7.12388e-15
2.23234e-13
6.47448e-12
1.72617e-10
4.19645e-09
9.21196e-08
1.80418e-06
3.10532e-05
0.000460608
0.00573492
0.057747
0.444384
2.37317
7.19643
7.19686
2.37891
0.502131
6.04319e-18
2.11859e-16
7.13068e-15
2.23436e-13
6.47998e-12
1.72755e-10
4.19953e-09
9.21816e-08
1.80528e-06
3.10698e-05
0.00046082
0.00573706
0.0577612
0.444373
2.37159
7.19482
7.19525
2.37733
0.502134
6.04449e-18
2.11903e-16
7.13206e-15
2.23477e-13
6.4811e-12
1.72782e-10
4.20015e-09
9.21939e-08
1.80549e-06
3.10731e-05
0.000460858
0.00573735
0.0577593
0.444254
2.36979
7.1929
7.19333
2.37552
0.502014
6.04468e-18
2.11909e-16
7.13226e-15
2.23482e-13
6.48125e-12
1.72786e-10
4.20023e-09
9.21955e-08
1.80552e-06
3.10734e-05
0.000460858
0.00573715
0.0577519
0.444091
2.36796
7.19091
7.19134
2.37369
0.501844
6.0447e-18
2.1191e-16
7.13228e-15
2.23483e-13
6.48126e-12
1.72786e-10
4.20023e-09
9.21953e-08
1.80551e-06
3.1073e-05
0.000460844
0.00573671
0.0577408
0.443897
2.36613
7.18888
7.18931
2.37187
0.501638
6.04478e-18
2.1191e-16
7.13223e-15
2.23479e-13
6.4811e-12
1.72781e-10
4.20007e-09
9.21911e-08
1.80541e-06
3.10708e-05
0.000460797
0.00573574
0.0577228
0.443645
2.36414
7.18639
7.18682
2.36987
0.501367
6.04568e-18
2.11917e-16
7.13169e-15
2.23441e-13
6.47941e-12
1.72722e-10
4.19833e-09
9.21468e-08
1.80443e-06
3.1052e-05
0.000460482
0.00573119
0.057667
0.443104
2.36077
7.17953
7.17995
2.3665
0.500765
6.05383e-18
2.1198e-16
7.12707e-15
2.23102e-13
6.46442e-12
1.72198e-10
4.18287e-09
9.17546e-08
1.79583e-06
3.08901e-05
0.000457898
0.00569691
0.0573013
0.440139
2.34449
7.1331
7.13352
2.35013
0.497375
6.10965e-18
2.12444e-16
7.09724e-15
2.20851e-13
6.36414e-12
1.68675e-10
4.07865e-09
8.9104e-08
1.7377e-06
2.97973e-05
0.00044054
0.00546913
0.0549165
0.421297
2.2426
6.82456
6.82487
2.24769
0.475741
6.36911e-18
2.14738e-16
6.96642e-15
2.10704e-13
5.90829e-12
1.52587e-10
3.60103e-09
7.6923e-08
1.46991e-06
2.4755e-05
0.000360359
0.00441675
0.043908
0.334455
1.77286
5.38784
5.38768
1.77538
0.375985
7.00996e-18
2.2069e-16
6.65979e-15
1.86306e-13
4.80402e-12
1.13446e-10
2.43535e-09
4.7116e-08
8.13134e-07
1.23622e-05
0.000162926
0.00182116
0.0167183
0.119688
0.609307
1.81921
1.81789
0.605474
0.129293
7.2694e-18
2.22987e-16
6.5291e-15
1.76163e-13
4.34823e-12
9.73566e-11
1.95759e-09
3.49292e-08
5.45171e-07
7.3155e-06
8.26655e-05
0.000767713
0.0057004
0.0328074
0.139596
0.382498
0.380717
0.1332
0.0294894
7.32507e-18
2.23446e-16
6.49906e-15
1.73902e-13
4.24751e-12
9.38169e-11
1.85278e-09
3.22609e-08
4.86579e-07
6.21295e-06
6.51391e-05
0.000537747
0.00329673
0.0138881
0.037785
0.0739728
0.0720921
0.0308361
0.00775874
7.33284e-18
2.23493e-16
6.49373e-15
1.73534e-13
4.23144e-12
9.32555e-11
1.83617e-09
3.18367e-08
4.77214e-07
6.03546e-06
6.22953e-05
0.000500172
0.00290281
0.0108073
0.0216158
0.0275776
0.0256819
0.0145822
0.00422482
7.33285e-18
2.23462e-16
6.49164e-15
1.73437e-13
4.22768e-12
9.31301e-11
1.83249e-09
3.17421e-08
4.75086e-07
5.99421e-06
6.16207e-05
0.000491159
0.0028092
0.0101101
0.0183996
0.0207458
0.0188482
0.0113518
0.00342748
7.33057e-18
2.23371e-16
6.48818e-15
1.73314e-13
4.22365e-12
9.30086e-11
1.82917e-09
3.16607e-08
4.73323e-07
5.96117e-06
6.10989e-05
0.00048447
0.00274346
0.00965998
0.0166251
0.0183273
0.0164291
0.00957058
0.00291164
7.32137e-18
2.23061e-16
6.47803e-15
1.73002e-13
4.21469e-12
9.27708e-11
1.82337e-09
3.15327e-08
4.70807e-07
5.91799e-06
6.04699e-05
0.000476994
0.00267504
0.0092229
0.0150217
0.0163457
0.0144483
0.00796489
0.00241258
7.26604e-18
2.21336e-16
6.4265e-15
1.71575e-13
4.17829e-12
9.19209e-11
1.80537e-09
3.11903e-08
4.65035e-07
5.83326e-06
5.94124e-05
0.000466159
0.00258875
0.0087362
0.013406
0.0143678
0.0124817
0.00638516
0.00189866
6.93068e-18
2.11093e-16
6.12793e-15
1.63561e-13
3.98167e-12
8.75515e-11
1.71837e-09
2.96588e-08
4.41599e-07
5.52822e-06
5.61329e-05
0.000438204
0.00241092
0.00796887
0.0114906
0.0120936
0.0102884
0.0047652
0.00136079
5.44162e-18
1.65737e-16
4.81094e-15
1.28392e-13
3.12487e-12
6.86896e-11
1.34753e-09
2.32422e-08
3.45711e-07
4.32132e-06
4.37754e-05
0.0003404
0.00185916
0.00604311
0.00825389
0.00853391
0.00710972
0.00294396
0.000788625
1.85222e-18
5.63278e-17
1.63262e-15
4.35042e-14
1.05718e-12
2.32015e-11
4.54412e-10
7.82431e-09
1.16172e-07
1.44933e-06
1.46504e-05
0.000113632
0.000618519
0.0019989
0.002688
0.00276418
0.00228761
0.000912489
0.00023861
3.77048e-19
1.14453e-17
3.31132e-16
8.80753e-15
2.13633e-13
4.67976e-12
9.14817e-11
1.57215e-09
2.32967e-08
2.90055e-07
2.92579e-06
2.2642e-05
0.000122927
0.000395915
0.000528785
0.000542443
0.000447518
0.000175508
4.53846e-05
5.39772e-20
1.63528e-18
4.72214e-17
1.25359e-15
3.0348e-14
6.63491e-13
1.29446e-11
2.22015e-10
3.28326e-09
4.07944e-08
4.10633e-07
3.17093e-06
1.7176e-05
5.51742e-05
7.34064e-05
7.51958e-05
6.19189e-05
2.40521e-05
6.18135e-06
5.93382e-21
1.79412e-19
5.17076e-18
1.37e-16
3.31008e-15
7.22239e-14
1.40626e-12
2.40703e-11
3.5524e-10
4.40478e-09
4.42461e-08
3.40949e-07
1.84283e-06
5.90624e-06
7.83783e-06
8.0212e-06
6.596e-06
2.54632e-06
6.51908e-07
5.28698e-22
1.59535e-20
4.58888e-19
1.21344e-17
2.926e-16
6.37162e-15
1.23812e-13
2.11495e-12
3.11498e-11
3.85449e-10
3.86385e-09
2.9712e-08
1.60258e-07
5.12553e-07
6.78902e-07
6.94285e-07
5.70318e-07
2.19195e-07
5.5976e-08
3.95855e-23
1.1921e-21
3.42226e-20
9.03167e-19
2.17351e-17
4.72356e-16
9.16028e-15
1.5616e-13
2.29531e-12
2.83443e-11
2.8355e-10
2.17595e-09
1.17125e-08
3.73861e-08
4.94467e-08
5.0538e-08
4.14773e-08
1.5888e-08
4.05015e-09
2.55581e-24
7.68128e-23
2.20081e-21
5.79674e-20
1.39225e-18
3.01967e-17
5.84424e-16
9.94291e-15
1.4585e-13
1.79741e-12
1.79443e-11
1.37424e-10
7.38225e-10
2.35195e-09
3.10689e-09
3.17392e-09
2.60285e-09
9.94379e-10
2.53165e-10
1.45065e-25
4.3511e-24
1.24423e-22
3.27076e-21
7.84015e-20
1.69709e-18
3.27798e-17
5.5657e-16
8.14776e-15
1.00208e-13
9.98388e-13
7.6306e-12
4.09097e-11
1.30097e-10
1.71677e-10
1.75307e-10
1.43664e-10
5.47645e-11
1.39299e-11
7.34682e-27
2.19923e-25
6.27666e-24
1.64675e-22
3.93957e-21
8.5108e-20
1.64062e-18
2.78007e-17
4.06165e-16
4.98532e-15
4.95699e-14
3.78102e-13
2.02315e-12
6.42229e-12
8.46713e-12
8.64293e-12
7.07827e-12
2.69324e-12
6.84591e-13
3.2202e-28
9.62126e-27
2.74087e-25
7.1776e-24
1.71392e-22
3.69569e-21
7.11072e-20
1.20264e-18
1.7537e-17
2.1484e-16
2.13211e-15
1.62322e-14
8.66943e-14
2.7474e-13
3.61931e-13
3.69324e-13
3.02289e-13
1.14843e-13
2.91779e-14
)
;

boundaryField
{
    top
    {
        type            zeroGradient;
    }
    left
    {
        type            fixedValue;
        value           uniform 0;
    }
    bottom
    {
        type            zeroGradient;
    }
    right
    {
        type            zeroGradient;
    }
    frontAndBack
    {
        type            empty;
    }
}


// ************************************************************************* //
