/*--------------------------------*- C++ -*----------------------------------*\
| =========                 |                                                 |
| \\      /  F ield         | OpenFOAM: The Open Source CFD Toolbox           |
|  \\    /   O peration     | Version:  v1806                                 |
|   \\  /    A nd           | Web:      www.OpenFOAM.com                      |
|    \\/     M anipulation  |                                                 |
\*---------------------------------------------------------------------------*/
FoamFile
{
    version     2.0;
    format      ascii;
    class       volScalarField;
    location    "0.065";
    object      T;
}
// * * * * * * * * * * * * * * * * * * * * * * * * * * * * * * * * * * * * * //

dimensions      [0 0 0 1 0 0 0];


internalField   nonuniform List<scalar> 
1881
(
-4.45566e-28
-4.14684e-28
2.15505e-28
1.52956e-26
3.5083e-25
7.12142e-24
1.30148e-22
2.1266e-21
3.07456e-20
3.87926e-19
4.19436e-18
3.79126e-17
2.76651e-16
1.54675e-15
6.08507e-15
1.43828e-14
1.43983e-14
6.14192e-15
1.83423e-15
2.26775e-27
2.30198e-27
-4.6464e-28
-6.25985e-26
-1.25125e-24
-2.19139e-23
-3.46563e-22
-4.90767e-21
-6.14368e-20
-6.68934e-19
-6.20378e-18
-4.76645e-17
-2.92004e-16
-1.34978e-15
-4.32884e-15
-8.44236e-15
-8.40165e-15
-4.30375e-15
-1.6032e-15
8.01741e-27
7.79567e-27
-1.03002e-27
-2.01498e-25
-4.31561e-24
-8.14733e-23
-1.39418e-21
-2.1457e-20
-2.93584e-19
-3.51919e-18
-3.62645e-17
-3.13248e-16
-2.18967e-15
-1.17572e-14
-4.45772e-14
-1.02318e-13
-1.02342e-13
-4.48789e-14
-1.39451e-14
-6.51445e-27
-8.12628e-27
-1.2665e-26
-9.83693e-26
-2.48381e-24
-5.94189e-23
-1.22949e-21
-2.21121e-20
-3.45295e-19
-4.64411e-18
-5.3014e-17
-5.0224e-16
-3.81891e-15
-2.2138e-14
-8.98446e-14
-2.17413e-13
-2.17774e-13
-9.08465e-14
-2.6234e-14
-1.09186e-25
-1.11936e-25
-5.73579e-26
1.2255e-24
2.58028e-23
4.52921e-22
7.16295e-21
1.0145e-19
1.27058e-18
1.38458e-17
1.28576e-16
9.89769e-16
6.08019e-15
2.8214e-14
9.09646e-14
1.7852e-13
1.7773e-13
9.05288e-14
3.35366e-14
-1.913e-25
-1.78111e-25
2.07473e-26
4.24846e-24
9.04317e-23
1.70165e-21
2.9042e-20
4.45949e-19
6.08969e-18
7.28747e-17
7.49909e-16
6.47031e-15
4.51895e-14
2.42491e-13
9.19071e-13
2.10926e-12
2.10973e-12
9.25257e-13
2.87608e-13
7.76158e-25
8.52506e-25
1.03426e-24
3.45926e-24
6.35555e-23
1.41717e-21
2.82142e-20
4.94013e-19
7.56265e-18
1.0017e-16
1.1297e-15
1.05982e-14
7.99454e-14
4.60424e-13
1.85887e-12
4.48174e-12
4.48848e-12
1.87859e-12
5.45429e-13
3.96495e-24
4.02189e-24
3.01298e-24
-2.06221e-23
-4.70943e-22
-8.25388e-21
-1.29803e-19
-1.82666e-18
-2.27127e-17
-2.45453e-16
-2.25696e-15
-1.71657e-14
-1.03857e-13
-4.72474e-13
-1.48416e-12
-2.82625e-12
-2.81159e-12
-1.47503e-12
-5.623e-13
6.12388e-25
-1.31306e-25
-4.71912e-24
-8.78795e-23
-1.75821e-21
-3.27995e-20
-5.56835e-19
-8.50989e-18
-1.15696e-16
-1.37885e-15
-1.41346e-14
-1.2152e-13
-8.45906e-13
-4.52545e-12
-1.7106e-11
-3.91775e-11
-3.91838e-11
-1.7218e-11
-5.36753e-12
-4.17827e-23
-4.43204e-23
-5.01724e-23
-1.18143e-22
-1.64569e-21
-3.39523e-20
-6.45138e-19
-1.09088e-17
-1.62487e-16
-2.10512e-15
-2.33121e-14
-2.15389e-13
-1.60392e-12
-9.13738e-12
-3.65609e-11
-8.75768e-11
-8.76893e-11
-3.69222e-11
-1.08224e-11
-9.89545e-23
-9.68664e-23
-7.64222e-23
3.01694e-22
7.32941e-21
1.27094e-19
1.96941e-18
2.72422e-17
3.3191e-16
3.49934e-15
3.11952e-14
2.27888e-13
1.30523e-12
5.48974e-12
1.53376e-11
2.48594e-11
2.46038e-11
1.51179e-11
6.55482e-12
2.31958e-22
2.64119e-22
3.72121e-22
1.87808e-21
3.13497e-20
5.74303e-19
9.67228e-18
1.46771e-16
1.98192e-15
2.3466e-14
2.39032e-13
2.04247e-12
1.41335e-11
7.5183e-11
2.82695e-10
6.44727e-10
6.4476e-10
2.84458e-10
8.91835e-11
1.5305e-21
1.57789e-21
1.70453e-21
3.37571e-21
3.9241e-20
7.61565e-19
1.38944e-17
2.27357e-16
3.29493e-15
4.17054e-14
4.52682e-13
4.11032e-12
3.01466e-11
1.69488e-10
6.70625e-10
1.59312e-09
1.59477e-09
6.76717e-10
2.00742e-10
6.72181e-22
4.29493e-22
-1.32671e-22
-5.27008e-21
-9.26106e-20
-1.53027e-18
-2.28341e-17
-3.01901e-16
-3.47184e-15
-3.38781e-14
-2.7048e-13
-1.66367e-12
-6.96638e-12
-1.27569e-11
4.06851e-11
2.61878e-10
2.65993e-10
4.59105e-11
-1.60038e-11
-1.46874e-20
-1.56645e-20
-1.7996e-20
-4.23861e-20
-5.03268e-19
-8.89918e-18
-1.48208e-16
-2.22737e-15
-2.97946e-14
-3.49484e-13
-3.52695e-12
-2.98583e-11
-2.04709e-10
-1.07903e-09
-4.02195e-09
-9.10688e-09
-9.10577e-09
-4.04513e-09
-1.28033e-09
-3.49447e-20
-3.41912e-20
-3.45418e-20
-6.76545e-20
-8.03297e-19
-1.51536e-17
-2.68175e-16
-4.27132e-15
-6.04428e-14
-7.48979e-13
-7.97636e-12
-7.11934e-11
-5.14145e-10
-2.85083e-09
-1.11452e-08
-2.62358e-08
-2.62564e-08
-1.12377e-08
-3.37702e-09
9.01602e-20
1.02113e-19
1.20178e-19
1.78055e-19
8.76545e-19
1.09635e-17
1.38336e-16
1.43349e-15
1.03572e-14
1.50483e-14
-9.57973e-13
-1.78394e-11
-1.913e-10
-1.38085e-09
-6.5192e-09
-1.74028e-08
-1.74623e-08
-6.62987e-09
-1.6226e-09
5.3239e-19
5.45433e-19
5.75955e-19
9.00093e-19
7.00314e-18
1.16849e-16
1.91578e-15
2.84085e-14
3.74911e-13
4.3373e-12
4.31541e-11
3.60016e-10
2.43122e-09
1.26182e-08
4.63186e-08
1.03523e-07
1.0348e-07
4.655e-08
1.49817e-08
-3.89634e-20
-1.50255e-19
-2.71911e-19
1.80256e-19
1.28312e-17
2.5598e-16
4.44505e-15
6.92944e-14
9.61104e-13
1.16901e-11
1.2236e-10
1.07467e-09
7.64553e-09
4.18108e-08
1.61454e-07
3.76452e-07
3.76655e-07
1.62678e-07
4.95426e-08
-5.90022e-18
-6.24837e-18
-6.70119e-18
-7.1606e-18
-5.82537e-18
5.77167e-17
1.64553e-15
3.33893e-14
5.64008e-13
8.03484e-12
9.59196e-11
9.424e-10
7.38807e-09
4.3961e-08
1.82396e-07
4.48767e-07
4.4951e-07
1.8438e-07
5.19188e-08
-9.74971e-18
-9.08395e-18
-8.33731e-18
-1.05287e-17
-7.25233e-17
-1.18959e-15
-1.91262e-14
-2.77472e-13
-3.57689e-12
-4.03511e-11
-3.90697e-10
-3.16446e-09
-2.06924e-08
-1.03709e-07
-3.66999e-07
-7.93646e-07
-7.92749e-07
-3.68189e-07
-1.23342e-07
5.00764e-17
5.54001e-17
6.18528e-17
6.02534e-17
-1.13466e-16
-3.47469e-15
-6.03408e-14
-9.24398e-13
-1.25954e-11
-1.50598e-10
-1.55054e-09
-1.34037e-08
-9.3916e-08
-5.06217e-07
-1.92902e-06
-4.45063e-06
-4.45194e-06
-1.94229e-06
-6.00111e-07
2.01049e-16
2.031e-16
2.04901e-16
1.97896e-16
2.25926e-17
-3.49227e-15
-6.73277e-14
-1.10538e-12
-1.60419e-11
-2.03439e-10
-2.21375e-09
-2.01624e-08
-1.48404e-07
-8.37635e-07
-3.32797e-06
-7.93461e-06
-7.94219e-06
-3.35698e-06
-9.90916e-07
-2.22338e-16
-2.81926e-16
-3.57509e-16
-4.19817e-16
-9.79282e-17
6.76277e-15
1.12059e-13
1.53219e-12
1.82948e-11
1.88072e-10
1.62284e-09
1.13374e-08
6.07674e-08
2.29002e-07
5.17997e-07
5.28208e-07
5.14868e-07
5.05885e-07
2.77045e-07
-2.7761e-15
-2.91512e-15
-3.08111e-15
-3.15324e-15
-1.36749e-15
3.3974e-14
6.21529e-13
9.38022e-12
1.25446e-10
1.47187e-09
1.4871e-08
1.26152e-07
8.67472e-07
4.59004e-06
1.71862e-05
3.9085e-05
3.90847e-05
1.72905e-05
5.44596e-06
-2.57444e-15
-2.13181e-15
-1.54562e-15
-7.0945e-16
3.42734e-15
6.80799e-14
1.1682e-12
1.82137e-11
2.5315e-10
3.08753e-09
3.24214e-08
2.858e-07
2.04159e-06
1.12142e-05
4.35009e-05
0.00010183
0.000101887
4.38297e-05
1.32798e-05
2.79773e-14
3.05027e-14
3.3634e-14
3.69393e-14
4.07266e-14
5.76257e-14
3.95745e-13
7.11217e-12
1.1965e-10
1.70799e-09
2.0436e-08
2.01233e-07
1.58116e-06
9.4299e-06
3.92132e-05
9.66637e-05
9.68079e-05
3.96138e-05
1.112e-05
8.43483e-14
8.40232e-14
8.3245e-14
8.1012e-14
6.49609e-14
-1.78438e-13
-4.03817e-12
-5.97471e-11
-7.74219e-10
-8.78086e-09
-8.55768e-08
-6.98652e-07
-4.61223e-06
-2.33777e-05
-8.37845e-05
-0.000183405
-0.000183268
-8.41433e-05
-2.78054e-05
-1.66705e-13
-1.97431e-13
-2.35848e-13
-2.79563e-13
-3.62604e-13
-1.11143e-12
-1.29109e-11
-1.90389e-10
-2.57427e-09
-3.06302e-08
-3.14082e-07
-2.70574e-06
-1.89045e-05
-0.000101669
-0.000386796
-0.00089157
-0.000891786
-0.000389391
-0.000120515
-1.31891e-12
-1.3756e-12
-1.4418e-12
-1.50756e-12
-1.61324e-12
-2.57538e-12
-1.85167e-11
-2.68202e-10
-3.75149e-09
-4.62756e-08
-4.91486e-07
-4.38089e-06
-3.1634e-05
-0.000175573
-0.000687653
-0.00162222
-0.00162327
-0.000692994
-0.000207734
-6.21742e-13
-3.68514e-13
-4.79562e-14
3.19357e-13
7.54323e-13
1.51392e-12
5.34855e-12
3.13033e-11
4.01938e-11
-3.79573e-09
-8.2567e-08
-1.08765e-06
-1.0222e-05
-6.8871e-05
-0.000312193
-0.000814171
-0.000816023
-0.0003161
-8.0634e-05
1.4233e-11
1.54051e-11
1.68061e-11
1.82741e-11
1.99975e-11
2.57245e-11
9.59478e-11
1.10487e-09
1.42387e-08
1.64077e-07
1.63029e-06
1.36e-05
9.19482e-05
0.00047835
0.001762
0.00395312
0.00395215
0.00177171
0.000568169
3.51083e-11
3.44159e-11
3.34023e-11
3.19915e-11
3.06119e-11
3.83323e-11
2.06588e-10
2.79592e-09
3.77175e-08
4.4993e-07
4.62792e-06
4.00058e-05
0.000280563
0.00151491
0.00578686
0.0133858
0.0133895
0.00582614
0.00179506
-9.74491e-11
-1.12703e-10
-1.31049e-10
-1.50801e-10
-1.71261e-10
-1.81166e-10
1.2397e-11
3.37969e-09
5.04428e-08
6.22735e-07
6.59166e-06
5.85657e-05
0.00042174
0.00233548
0.00913142
0.0215171
0.0215295
0.00920009
0.00276272
-5.99078e-10
-6.20905e-10
-6.44798e-10
-6.66488e-10
-6.85087e-10
-7.00495e-10
-7.05348e-10
-3.6476e-10
7.84825e-09
1.46741e-07
1.9801e-06
2.11158e-05
0.000175834
0.00109591
0.00471324
0.0118913
0.0119103
0.00476168
0.00128672
-3.21678e-11
1.05584e-10
2.73256e-10
4.61617e-10
6.69405e-10
8.60192e-10
4.34514e-10
-9.23941e-09
-1.38078e-07
-1.60414e-06
-1.58838e-05
-0.000131895
-0.000887548
-0.00459593
-0.0168542
-0.0376763
-0.0376657
-0.0169462
-0.00546139
6.9077e-09
7.43706e-09
8.04186e-09
8.65979e-09
9.27692e-09
9.78991e-09
8.5779e-09
-1.82836e-08
-3.84972e-07
-4.68939e-06
-4.80349e-05
-0.000412773
-0.00287806
-0.0154564
-0.0587583
-0.135411
-0.135438
-0.0591438
-0.0183189
1.37891e-08
1.31984e-08
1.24178e-08
1.1421e-08
1.01725e-08
8.4992e-09
3.85132e-09
-4.18895e-08
-6.38204e-07
-7.72583e-06
-8.03341e-05
-0.000702162
-0.00497999
-0.027194
-0.10501
-0.245083
-0.245176
-0.105743
-0.03219
-5.35796e-08
-6.10055e-08
-6.95735e-08
-7.87083e-08
-8.83823e-08
-9.87049e-08
-1.11843e-07
-1.61878e-07
-7.19097e-07
-7.43038e-06
-7.80041e-05
-0.000698367
-0.00507423
-0.0283466
-0.111736
-0.265012
-0.265171
-0.112573
-0.0334962
-2.64273e-07
-2.71912e-07
-2.79494e-07
-2.85635e-07
-2.89958e-07
-2.92093e-07
-2.90812e-07
-2.74897e-07
-1.34406e-07
9.97799e-07
7.70506e-06
2.4758e-05
-0.000128968
-0.00229859
-0.0145406
-0.044437
-0.0445998
-0.0147864
-0.00257676
1.09763e-07
1.8293e-07
2.68577e-07
3.63769e-07
4.68883e-07
5.8472e-07
7.19432e-07
9.88061e-07
2.86733e-06
2.28927e-05
0.000218706
0.00182821
0.0124568
0.0654218
0.243466
0.551353
0.551317
0.244917
0.0776655
3.2887e-06
3.52707e-06
3.78522e-06
4.0437e-06
4.29888e-06
4.54875e-06
4.80885e-06
5.3544e-06
9.83016e-06
5.98853e-05
0.000560816
0.00476512
0.0331283
0.177631
0.674571
1.5537
1.55396
0.678921
0.210515
5.09624e-06
4.67454e-06
4.15053e-06
3.5173e-06
2.76855e-06
1.90183e-06
9.4597e-07
3.78244e-07
6.5289e-06
9.22762e-05
0.000972699
0.00843596
0.0592163
0.320127
1.22502
2.83909
2.83977
1.2331
0.37912
-2.91549e-05
-3.28757e-05
-3.68804e-05
-4.10015e-05
-4.5212e-05
-4.94858e-05
-5.37545e-05
-5.73159e-05
-5.11326e-05
6.90647e-05
0.00133117
0.0120942
0.0856865
0.46561
1.78948
4.16166
4.16281
1.8014
0.551194
-0.000116219
-0.000117957
-0.000119234
-0.000119783
-0.000119594
-0.000118669
-0.000116956
-0.000113619
-9.747e-05
6.13151e-05
0.00165136
0.0151471
0.107578
0.58606
2.25818
5.26285
5.26443
2.2734
0.693743
0.000128088
0.000156225
0.000185197
0.000214477
0.000244063
0.000273953
0.000304198
0.000335737
0.000381156
0.000586977
0.00259924
0.018075
0.123012
0.666351
2.56785
5.99062
5.99247
2.58518
0.788408
0.00152654
0.00155894
0.00159405
0.00162921
0.00166437
0.00169954
0.00173478
0.00177108
0.0018217
0.00204106
0.0041451
0.0204645
0.131344
0.706102
2.71958
6.34731
6.34929
2.73791
0.835086
0.00293426
0.00296313
0.00299671
0.00303041
0.00306408
0.0030977
0.00313134
0.00316603
0.00321519
0.00343543
0.00555479
0.0221007
0.134649
0.718341
2.76394
6.4509
6.45292
2.78255
0.849269
0.00426939
0.00429446
0.00432601
0.00435784
0.00438963
0.00442139
0.00445317
0.00448598
0.00453324
0.00475129
0.00685558
0.0233637
0.135728
0.718539
2.76119
6.443
6.44501
2.77975
0.849253
0.00552845
0.00554995
0.00557939
0.00560932
0.00563923
0.00566911
0.005699
0.00572992
0.00577524
0.00599067
0.00807554
0.0245074
0.136412
0.716855
2.75113
6.41766
6.41966
2.76962
0.847035
0.00671098
0.00672908
0.00675633
0.00678431
0.00681228
0.00684021
0.00686815
0.00689712
0.00694045
0.00715358
0.00922287
0.0256121
0.137291
0.716596
2.74687
6.40609
6.40808
2.76531
0.846516
0.00781551
0.00783038
0.00785536
0.00788133
0.00790732
0.00793327
0.00795926
0.00798627
0.00802766
0.00823872
0.0102946
0.02666
0.138245
0.717115
2.74592
6.40251
6.40449
2.76433
0.846924
0.00884317
0.00885539
0.00887851
0.00890294
0.00892748
0.00895204
0.00897668
0.00900241
0.00904255
0.00925224
0.011295
0.0276322
0.139086
0.717309
2.74386
6.39639
6.39837
2.76224
0.84696
0.00980964
0.00982064
0.00984318
0.00986728
0.00989152
0.00991575
0.00994003
0.00996533
0.010005
0.010214
0.0122444
0.0285568
0.139892
0.717492
2.74174
6.3899
6.39186
2.76009
0.846994
0.0107224
0.0107298
0.0107486
0.010769
0.010789
0.0108087
0.0108281
0.0108481
0.0108822
0.0110856
0.0131012
0.029423
0.140934
0.719472
2.7468
6.40001
6.40195
2.76512
0.849127
0.0113973
0.0113877
0.0113898
0.0113938
0.0113978
0.0114018
0.0114056
0.0114103
0.0114295
0.0116195
0.0135324
0.0298688
0.142158
0.725167
2.7683
6.4494
6.45136
2.7868
0.855905
0.0114516
0.0114387
0.0114368
0.0114373
0.011438
0.0114388
0.0114397
0.0114416
0.0114583
0.0116484
0.0135862
0.0301607
0.144127
0.735945
2.8101
6.54704
6.54908
2.82899
0.868785
0.0114853
0.0114734
0.0114716
0.0114725
0.0114738
0.0114752
0.0114767
0.0114792
0.0114968
0.01169
0.013656
0.0304789
0.146224
0.747612
2.85626
6.65664
6.65878
2.87561
0.882703
0.011543
0.011532
0.0115305
0.0115318
0.0115336
0.0115354
0.0115373
0.0115403
0.0115582
0.0117515
0.0137158
0.0305367
0.146375
0.748809
2.86302
6.67661
6.67882
2.8825
0.884071
0.0116047
0.0115941
0.0115919
0.0115925
0.0115937
0.0115948
0.011596
0.0115982
0.0116147
0.0118
0.0136903
0.0298942
0.141583
0.723053
2.76618
6.45638
6.45851
2.78483
0.853198
0.0116145
0.0116029
0.0115982
0.0115963
0.0115948
0.0115933
0.0115918
0.0115911
0.0116033
0.0117685
0.0134776
0.0281414
0.12924
0.655952
2.50896
5.86136
5.86316
2.52529
0.772924
0.0114872
0.0114733
0.0114641
0.0114573
0.0114509
0.0114444
0.0114378
0.0114318
0.0114366
0.0115691
0.0129854
0.0251402
0.108825
0.54463
2.07903
4.86015
4.86131
2.09141
0.639876
0.0111351
0.0111177
0.0111025
0.0110891
0.0110759
0.0110626
0.0110492
0.0110362
0.0110315
0.0111231
0.0121734
0.0211764
0.0828508
0.403055
1.52987
3.576
3.57631
1.53717
0.470797
0.0105038
0.0104827
0.0104611
0.0104407
0.0104204
0.0104
0.0103795
0.0103592
0.0103446
0.010395
0.0110766
0.0168883
0.0561679
0.258193
0.966397
2.25437
2.25376
0.96848
0.297919
0.00959862
0.0095747
0.00954785
0.00952151
0.0094953
0.00946903
0.00944267
0.00941651
0.00939397
0.00941096
0.00979146
0.0129851
0.0338084
0.138015
0.498307
1.15378
1.1524
0.496047
0.154619
0.00848344
0.00845814
0.00842816
0.00839818
0.00836831
0.00833841
0.00830849
0.00827873
0.00825134
0.00824717
0.0084337
0.00992796
0.0187047
0.0587556
0.189889
0.427219
0.425304
0.184747
0.0602113
0.00725291
0.00722776
0.00719687
0.00716562
0.00713443
0.00710327
0.00707212
0.00704114
0.00701199
0.00699845
0.00709395
0.00777761
0.0107528
0.0196757
0.0389701
0.0713352
0.0691454
0.0323717
0.013746
0.00599647
0.00597259
0.00594248
0.00591173
0.00588101
0.00585034
0.00581971
0.00578928
0.00576056
0.00574558
0.00581827
0.00628446
0.00765649
0.00780493
-0.00486362
-0.0315657
-0.0338507
-0.0119324
-0.000257304
0.00477731
0.00475535
0.00472704
0.0046979
0.00466877
0.00463968
0.00461067
0.00458187
0.00455483
0.00454183
0.00461955
0.00511577
0.00667907
0.00777613
-0.0017043
-0.0228404
-0.0251109
-0.00871899
-3.55927e-05
0.00363512
0.0036155
0.00358971
0.00356299
0.00353625
0.00350958
0.00348299
0.00345665
0.00343205
0.00342159
0.00350481
0.00404607
0.00599008
0.00935424
0.00840623
0.00299158
0.000825626
0.00175076
0.0023776
0.00260252
0.00258569
0.00256322
0.00253981
0.00251636
0.00249301
0.00246977
0.00244678
0.00242542
0.00241709
0.00249603
0.00301222
0.00495623
0.00897814
0.0115924
0.0130802
0.0111299
0.00561146
0.00289698
0.00171649
0.00170296
0.00168467
0.00166553
0.00164639
0.00162735
0.00160845
0.00158979
0.0015725
0.001566
0.0016316
0.0020594
0.00367477
0.00703865
0.00930889
0.0107508
0.00913992
0.00436358
0.00202098
0.00101366
0.00100378
0.00099028
0.000976128
0.000961992
0.000947974
0.00093409
0.000920425
0.000907801
0.000903044
0.000950702
0.00126076
0.00242131
0.00475526
0.00591235
0.00603375
0.0048519
0.00227664
0.00104309
0.000514099
0.000507754
0.000499038
0.000489891
0.000480777
0.000471769
0.000462881
0.000454163
0.000446127
0.000443021
0.000472623
0.000665806
0.00138638
0.00280713
0.00335305
0.00309212
0.00235015
0.00106634
0.000464923
0.00020759
0.000204182
0.00019948
0.000194549
0.000189654
0.000184839
0.000180112
0.000175496
0.000171249
0.000169514
0.000184367
0.000282411
0.000650031
0.00138036
0.00167808
0.00158073
0.0012041
0.000515523
0.000191632
5.40594e-05
5.26537e-05
5.07103e-05
4.86785e-05
4.66746e-05
4.47182e-05
4.28119e-05
4.09643e-05
3.92664e-05
3.84872e-05
4.37107e-05
7.91997e-05
0.000213897
0.00048764
0.000624426
0.000642135
0.000505969
0.000203276
5.89202e-05
-1.64946e-06
-1.98981e-06
-2.46007e-06
-2.94652e-06
-3.41791e-06
-3.86889e-06
-4.29905e-06
-4.70769e-06
-5.08344e-06
-5.32478e-06
-4.74284e-06
3.73354e-08
1.89673e-05
5.91734e-05
8.44435e-05
9.85662e-05
7.98326e-05
2.59967e-05
1.80571e-07
-1.02418e-05
-1.01967e-05
-1.01333e-05
-1.0063e-05
-9.98785e-06
-9.90819e-06
-9.82432e-06
-9.73751e-06
-9.65854e-06
-9.67501e-06
-1.0357e-05
-1.4388e-05
-2.92804e-05
-5.92137e-05
-7.45033e-05
-7.68956e-05
-6.18482e-05
-2.82469e-05
-1.20586e-05
-5.05494e-06
-4.96795e-06
-4.84709e-06
-4.71941e-06
-4.59178e-06
-4.46541e-06
-4.34055e-06
-4.21804e-06
-4.10601e-06
-4.07211e-06
-4.56237e-06
-7.70199e-06
-1.95207e-05
-4.34967e-05
-5.55677e-05
-5.73167e-05
-4.53909e-05
-1.87098e-05
-5.98099e-06
-6.3159e-07
-5.96146e-07
-5.47112e-07
-4.95998e-07
-4.45885e-07
-3.97311e-07
-3.50344e-07
-3.0516e-07
-2.63693e-07
-2.42517e-07
-3.52209e-07
-1.12468e-06
-4.07608e-06
-1.00133e-05
-1.24212e-05
-1.16658e-05
-8.65691e-06
-3.06827e-06
-4.74699e-07
5.76587e-07
5.77024e-07
5.77492e-07
5.77643e-07
5.77327e-07
5.76521e-07
5.75242e-07
5.73573e-07
5.72174e-07
5.7635e-07
6.20529e-07
8.66532e-07
1.76739e-06
3.58251e-06
4.5646e-06
4.82723e-06
3.92239e-06
1.7866e-06
7.5424e-07
3.07246e-07
3.01407e-07
2.93274e-07
2.84666e-07
2.76051e-07
2.67514e-07
2.59074e-07
2.50792e-07
2.43257e-07
2.4137e-07
2.77512e-07
5.06122e-07
1.36362e-06
3.07855e-06
3.79816e-06
3.62123e-06
2.74892e-06
1.09705e-06
3.22639e-07
2.74607e-10
-1.66751e-09
-4.34424e-09
-7.11521e-09
-9.8057e-09
-1.23851e-08
-1.48504e-08
-1.71968e-08
-1.93585e-08
-2.07507e-08
-1.73934e-08
1.02153e-08
1.18792e-07
3.40435e-07
4.28938e-07
3.99666e-07
2.89165e-07
8.27504e-08
-1.19153e-08
-4.84561e-08
-4.80225e-08
-4.74095e-08
-4.67426e-08
-4.60519e-08
-4.53433e-08
-4.46191e-08
-4.38891e-08
-4.32372e-08
-4.3358e-08
-4.88148e-08
-8.12739e-08
-2.01599e-07
-4.40635e-07
-5.38384e-07
-5.0757e-07
-3.8515e-07
-1.59998e-07
-5.43114e-08
-9.7491e-09
-9.34826e-09
-8.79284e-09
-8.21125e-09
-7.6377e-09
-7.07831e-09
-6.53409e-09
-6.00782e-09
-5.52751e-09
-5.33133e-09
-7.01089e-09
-1.825e-08
-6.11287e-08
-1.48473e-07
-1.89375e-07
-1.89882e-07
-1.46612e-07
-5.48097e-08
-1.1618e-08
5.94926e-09
5.946e-09
5.93935e-09
5.92827e-09
5.912e-09
5.89047e-09
5.86394e-09
5.83357e-09
5.8091e-09
5.87004e-09
6.53645e-09
1.0266e-08
2.39266e-08
5.09394e-08
6.20526e-08
5.8616e-08
4.47413e-08
1.92556e-08
7.23624e-09
2.09272e-09
2.03105e-09
1.94538e-09
1.85521e-09
1.76569e-09
1.67776e-09
1.59159e-09
1.50777e-09
1.43181e-09
1.41041e-09
1.75497e-09
3.96706e-09
1.23616e-08
2.94932e-08
3.78698e-08
3.87122e-08
3.02699e-08
1.16379e-08
2.83396e-09
-7.6426e-10
-7.67659e-10
-7.72039e-10
-7.76019e-10
-7.79163e-10
-7.81405e-10
-7.82771e-10
-7.83416e-10
-7.84611e-10
-7.96689e-10
-8.87133e-10
-1.37479e-09
-3.15365e-09
-6.70316e-09
-8.37481e-09
-8.3681e-09
-6.57676e-09
-2.856e-09
-1.07978e-09
-3.17247e-10
-3.08223e-10
-2.95684e-10
-2.82474e-10
-2.69344e-10
-2.5643e-10
-2.43762e-10
-2.31429e-10
-2.20305e-10
-2.17784e-10
-2.73214e-10
-6.24768e-10
-1.9571e-09
-4.67167e-09
-5.96824e-09
-6.03934e-09
-4.69876e-09
-1.80038e-09
-4.3517e-10
1.20199e-10
1.20431e-10
1.20702e-10
1.20895e-10
1.20968e-10
1.20917e-10
1.20747e-10
1.20484e-10
1.20358e-10
1.22262e-10
1.38624e-10
2.28545e-10
5.59389e-10
1.22741e-09
1.56716e-09
1.62214e-09
1.29084e-09
5.44327e-10
1.87419e-10
3.61225e-11
3.48239e-11
3.30239e-11
3.11342e-11
2.9264e-11
2.74333e-11
2.56458e-11
2.39127e-11
2.23464e-11
2.19007e-11
2.89666e-11
7.44709e-11
2.47333e-10
5.97512e-10
7.48613e-10
7.24215e-10
5.4943e-10
2.04155e-10
4.3408e-11
-2.14212e-11
-2.13033e-11
-2.11328e-11
-2.09412e-11
-2.07354e-11
-2.05168e-11
-2.02867e-11
-2.00506e-11
-1.98583e-11
-2.01253e-11
-2.36003e-11
-4.3434e-11
-1.17014e-10
-2.65137e-10
-3.33321e-10
-3.3098e-10
-2.56937e-10
-1.03925e-10
-3.16919e-11
-1.92472e-12
-1.76369e-12
-1.54166e-12
-1.31046e-12
-1.08405e-12
-8.64916e-13
-6.53398e-13
-4.50336e-13
-2.64806e-13
-1.75521e-13
-7.15624e-13
-4.49075e-12
-1.90647e-11
-4.87196e-11
-6.07634e-11
-5.72704e-11
-4.25023e-11
-1.45448e-11
-1.69523e-12
3.1538e-12
3.10809e-12
3.0441e-12
2.97566e-12
2.9063e-12
2.83668e-12
2.76703e-12
2.69824e-12
2.63889e-12
2.66093e-12
3.24351e-12
6.69176e-12
1.95882e-11
4.55355e-11
5.66502e-11
5.45666e-11
4.15457e-11
1.619e-11
4.34097e-12
-5.42749e-13
-5.51755e-13
-5.63927e-13
-5.76162e-13
-5.87578e-13
-5.98028e-13
-6.07521e-13
-6.16182e-13
-6.25058e-13
-6.42658e-13
-7.24441e-13
-1.13143e-12
-2.58765e-12
-5.4277e-12
-6.48634e-12
-5.88261e-12
-4.4058e-12
-1.93734e-12
-7.78569e-13
-2.61031e-13
-2.5196e-13
-2.39398e-13
-2.26202e-13
-2.13131e-13
-2.00319e-13
-1.87795e-13
-1.75643e-13
-1.64729e-13
-1.62447e-13
-2.18548e-13
-5.75121e-13
-1.93464e-12
-4.72142e-12
-6.05528e-12
-6.14783e-12
-4.78324e-12
-1.79814e-12
-3.98752e-13
1.89666e-13
1.87961e-13
1.85564e-13
1.8297e-13
1.80302e-13
1.7758e-13
1.74817e-13
1.72069e-13
1.69893e-13
1.72964e-13
2.12432e-13
4.38338e-13
1.2807e-12
2.98635e-12
3.78109e-12
3.78104e-12
2.93622e-12
1.15637e-12
3.18753e-13
-3.42869e-15
-4.27618e-15
-5.43921e-15
-6.64191e-15
-7.80935e-15
-8.92847e-15
-9.99818e-15
-1.10178e-14
-1.19716e-14
-1.27111e-14
-1.21736e-14
-4.9136e-15
2.56618e-14
9.00871e-14
1.13905e-13
1.03166e-13
7.2037e-14
1.45047e-14
-1.07239e-14
-1.12578e-14
-1.1002e-14
-1.0648e-14
-1.02753e-14
-9.90458e-15
-9.53966e-15
-9.18133e-15
-8.83345e-15
-8.53482e-15
-8.61585e-15
-1.12929e-14
-2.73084e-14
-8.76359e-14
-2.10089e-13
-2.64843e-13
-2.60451e-13
-1.99821e-13
-7.58989e-14
-1.80564e-14
)
;

boundaryField
{
    top
    {
        type            zeroGradient;
    }
    left
    {
        type            fixedValue;
        value           uniform 0;
    }
    bottom
    {
        type            zeroGradient;
    }
    right
    {
        type            zeroGradient;
    }
    frontAndBack
    {
        type            empty;
    }
}


// ************************************************************************* //
