/*--------------------------------*- C++ -*----------------------------------*\
| =========                 |                                                 |
| \\      /  F ield         | OpenFOAM: The Open Source CFD Toolbox           |
|  \\    /   O peration     | Version:  v1806                                 |
|   \\  /    A nd           | Web:      www.OpenFOAM.com                      |
|    \\/     M anipulation  |                                                 |
\*---------------------------------------------------------------------------*/
FoamFile
{
    version     2.0;
    format      ascii;
    class       volScalarField;
    location    "0.065";
    object      T;
}
// * * * * * * * * * * * * * * * * * * * * * * * * * * * * * * * * * * * * * //

dimensions      [0 0 0 1 0 0 0];


internalField   nonuniform List<scalar> 
1881
(
2.14844e-106
4.78446e-105
1.03667e-103
2.09031e-102
3.89955e-101
6.68547e-100
1.04499e-98
1.47507e-97
1.85863e-96
2.06069e-95
1.9744e-94
1.59756e-93
1.05912e-92
5.50424e-92
2.05567e-91
4.3483e-91
4.34029e-91
2.05454e-91
6.45704e-92
1.77488e-104
3.95828e-103
8.58856e-102
1.73419e-100
3.23972e-99
5.56208e-98
8.70647e-97
1.23085e-95
1.55367e-94
1.7269e-93
1.6622e-92
1.35876e-91
9.22586e-91
5.03659e-90
2.00648e-89
3.9756e-89
3.96879e-89
2.00363e-89
5.84597e-90
1.46044e-102
3.26168e-101
7.08687e-100
1.43295e-98
2.68069e-97
4.60886e-96
7.22517e-95
1.02319e-93
1.29463e-92
1.44523e-91
1.40497e-90
1.17763e-89
8.48947e-89
5.19871e-88
2.36323e-87
4.10211e-87
4.09586e-87
2.35568e-87
5.89193e-88
1.18263e-100
2.64503e-99
5.75501e-98
1.16527e-96
2.18302e-95
3.75879e-94
5.9024e-93
8.37757e-92
1.06425e-90
1.19908e-89
1.19424e-88
1.06554e-87
8.80495e-87
6.65547e-86
3.64097e-85
5.28396e-85
5.27719e-85
3.62173e-85
7.25756e-86
9.42189e-99
2.1103e-97
4.59794e-96
9.32305e-95
1.74914e-93
3.01664e-92
4.74709e-91
6.76239e-90
8.66225e-89
9.97828e-88
1.05524e-86
1.08446e-85
1.14009e-84
1.11303e-83
7.1603e-83
8.99473e-83
8.98521e-83
7.11274e-83
1.16801e-83
7.38263e-97
1.65594e-95
3.61307e-94
7.33671e-93
1.37867e-91
2.38246e-90
3.76148e-89
5.39753e-88
7.05028e-87
8.577e-86
1.0394e-84
1.37086e-83
1.91127e-82
2.27473e-81
1.61834e-80
1.88589e-80
1.88416e-80
1.60676e-80
2.33061e-81
5.68759e-95
1.2776e-93
2.79159e-92
5.67743e-91
1.06889e-89
1.8526e-88
2.94338e-87
4.29491e-86
5.88456e-85
8.11297e-84
1.25718e-82
2.23045e-81
3.85198e-80
5.13983e-79
3.87849e-78
4.38196e-78
4.3783e-78
3.8505e-78
5.20611e-79
4.30669e-93
9.68849e-92
2.12018e-90
4.3197e-89
8.15429e-88
1.42094e-86
2.28952e-85
3.47912e-84
5.32495e-83
9.27373e-82
1.94887e-80
4.35021e-79
8.4898e-78
1.2082e-76
9.49719e-76
1.05972e-75
1.0589e-75
9.42976e-76
1.21717e-76
3.20415e-91
7.21934e-90
1.58256e-88
3.23207e-87
6.12922e-86
1.08053e-84
1.80053e-83
3.00855e-82
5.70953e-81
1.3518e-79
3.63733e-78
9.27181e-77
1.93676e-75
2.87949e-74
2.34343e-73
2.59939e-73
2.59749e-73
2.32721e-73
2.89191e-74
2.34149e-89
5.28464e-88
1.16098e-86
2.38036e-85
4.55707e-84
8.25583e-83
1.48902e-81
3.01434e-80
7.74454e-79
2.39223e-77
7.45558e-76
2.04453e-74
4.46877e-73
6.89249e-72
5.79877e-71
6.40771e-71
6.40331e-71
5.75983e-71
6.90654e-72
1.68018e-87
3.79995e-86
8.37606e-85
1.7306e-83
3.38601e-82
6.54201e-81
1.39297e-79
3.77294e-78
1.28794e-76
4.69221e-75
1.58469e-73
4.55657e-72
1.03397e-70
1.65139e-69
1.43646e-68
1.58233e-68
1.58131e-68
1.42712e-68
1.65152e-69
1.18368e-85
2.68497e-84
5.95526e-83
1.25167e-81
2.57747e-80
5.72398e-79
1.59897e-77
5.84214e-76
2.40439e-74
9.58747e-73
3.40521e-71
1.0173e-69
2.39144e-68
3.95512e-67
3.55954e-66
3.9095e-66
3.90714e-66
3.53718e-66
3.94822e-67
8.18798e-84
1.86686e-82
4.19624e-81
9.17804e-80
2.1169e-78
6.00454e-77
2.28326e-75
1.03152e-73
4.70866e-72
1.98291e-70
7.32502e-69
2.26759e-67
5.52161e-66
9.46247e-65
8.81927e-64
9.65849e-64
9.65304e-64
8.76588e-64
9.42955e-65
5.56627e-82
1.28245e-80
2.97186e-79
7.11038e-78
2.0285e-76
7.83272e-75
3.78408e-73
1.92917e-71
9.35547e-70
4.10391e-68
1.57137e-66
5.03902e-65
1.27173e-63
2.26024e-62
2.18388e-61
2.38484e-61
2.38359e-61
2.17116e-61
2.24864e-62
3.72873e-80
8.79322e-79
2.1836e-77
6.24098e-76
2.39707e-74
1.20747e-72
6.72822e-71
3.67404e-69
1.86006e-67
8.46094e-66
3.35589e-64
1.11534e-62
2.91993e-61
5.38754e-60
5.40253e-59
5.8828e-59
5.87993e-59
5.37232e-59
5.35138e-60
2.47849e-78
6.16101e-77
1.76537e-75
6.64047e-74
3.40117e-72
2.02936e-70
1.22493e-68
7.00553e-67
3.68021e-65
1.73409e-63
7.12753e-62
2.45713e-60
6.67928e-59
1.28078e-57
1.33459e-56
1.44907e-56
1.44842e-56
1.32745e-56
1.27026e-57
1.66189e-76
4.62276e-75
1.68717e-73
8.57289e-72
5.3633e-70
3.51994e-68
2.23567e-66
1.32813e-64
7.2278e-63
3.52866e-61
1.50414e-59
5.38359e-58
1.52115e-56
3.03501e-55
3.29076e-54
3.56275e-54
3.56127e-54
3.27393e-54
3.00575e-55
1.16387e-74
3.97632e-73
1.95943e-71
1.25646e-69
8.8241e-68
6.13537e-66
4.05444e-64
2.4956e-62
1.4069e-60
7.12151e-59
3.15104e-57
1.17215e-55
3.44653e-54
7.16447e-53
8.09594e-52
8.73974e-52
8.73641e-52
8.05649e-52
7.08563e-53
9.02439e-73
4.11544e-71
2.63814e-69
1.94951e-67
1.46477e-65
1.06235e-63
7.27669e-62
4.63905e-60
2.7108e-58
1.42392e-56
6.54646e-55
2.53377e-53
7.76279e-52
1.68381e-50
1.98668e-49
2.1384e-49
2.13766e-49
1.97748e-49
1.66307e-50
8.22902e-71
5.02143e-69
3.83044e-67
3.07096e-65
2.41635e-63
1.81782e-61
1.28948e-59
8.51823e-58
5.16356e-56
2.81732e-54
1.34731e-52
5.43243e-51
1.73671e-49
3.93774e-48
4.86187e-47
5.21764e-47
5.21599e-47
4.84055e-47
3.88419e-48
8.9208e-69
6.7527e-67
5.69914e-65
4.81406e-63
3.93417e-61
3.06501e-59
2.2521e-57
1.5427e-55
9.70979e-54
5.50869e-52
2.74349e-50
1.154e-48
3.85622e-47
9.15905e-46
1.18659e-44
1.26957e-44
1.26921e-44
1.18168e-44
9.02273e-46
1.09252e-66
9.42947e-65
8.46287e-63
7.44113e-61
6.29858e-59
5.08118e-57
3.86975e-55
2.75111e-53
1.79969e-51
1.06287e-49
5.52001e-48
2.42615e-46
8.49141e-45
2.11818e-43
2.889e-42
3.08141e-42
3.08062e-42
2.87772e-42
2.08386e-43
1.41657e-64
1.32097e-62
1.23866e-60
1.12866e-58
9.88953e-57
8.26501e-55
6.52927e-53
4.82199e-51
3.28204e-49
2.02032e-47
1.09584e-45
5.0424e-44
1.85299e-42
4.86996e-41
7.02114e-40
7.4647e-40
7.46299e-40
6.99542e-40
4.78422e-41
1.86e-62
1.82512e-60
1.77556e-58
1.6744e-56
1.51908e-54
1.31611e-52
1.07942e-50
8.28946e-49
5.8774e-47
3.77639e-45
2.14318e-43
1.03482e-41
4.00472e-40
1.11323e-38
1.705e-37
1.80666e-37
1.80629e-37
1.69916e-37
1.09193e-38
2.41508e-60
2.46552e-58
2.48236e-56
2.42245e-54
2.2768e-52
2.0465e-50
1.74417e-48
1.39434e-46
1.03121e-44
6.92757e-43
4.12241e-41
2.09456e-39
8.56782e-38
2.53109e-36
4.14298e-35
4.37469e-35
4.37392e-35
4.12975e-35
2.47838e-36
3.0633e-58
3.23914e-56
3.37299e-54
3.40739e-52
3.31988e-50
3.09843e-48
2.74677e-46
2.28863e-44
1.76821e-42
1.24443e-40
7.78496e-39
4.17659e-37
1.81392e-35
5.72768e-34
1.00899e-32
1.06156e-32
1.06139e-32
1.00601e-32
5.59776e-34
3.76855e-56
4.12091e-54
4.43844e-52
4.64376e-50
4.69354e-48
4.55223e-46
4.20214e-44
3.65414e-42
2.9546e-40
2.18356e-38
1.44058e-36
8.19484e-35
3.79935e-33
1.29098e-31
2.46633e-30
2.5851e-30
2.58476e-30
2.45961e-30
1.25918e-31
4.4725e-54
5.05546e-52
5.63344e-50
6.10768e-48
6.40829e-46
6.46485e-44
6.22128e-42
5.65502e-40
4.79531e-38
3.73204e-36
2.60653e-34
1.58011e-32
7.87046e-31
2.89931e-29
6.05223e-28
6.31966e-28
6.31897e-28
6.03719e-28
2.82248e-29
5.09474e-52
5.95261e-50
6.86496e-48
7.71656e-46
8.4106e-44
8.83381e-42
8.87379e-40
8.44667e-38
7.53038e-36
6.19283e-34
4.59977e-32
2.98922e-30
1.61104e-28
6.48233e-27
1.48821e-25
1.54818e-25
1.54804e-25
1.48488e-25
6.3008e-27
5.54005e-50
6.69101e-48
7.98832e-46
9.31368e-44
1.05525e-41
1.15509e-39
1.21297e-37
1.21157e-35
1.13894e-33
9.9373e-32
7.8918e-30
5.53459e-28
3.25115e-26
1.43838e-24
3.65088e-23
3.78443e-23
3.78415e-23
3.64367e-23
1.39683e-24
5.71465e-48
7.13411e-46
8.81863e-44
1.06684e-41
1.25731e-39
1.4358e-37
1.57867e-35
1.65862e-33
1.64966e-31
1.53421e-29
1.31058e-27
9.98753e-26
6.43726e-24
3.1485e-22
8.88764e-21
9.18116e-21
9.18063e-21
8.8724e-21
3.0567e-22
5.55015e-46
7.1601e-44
9.16337e-42
1.15046e-39
1.4111e-37
1.68284e-35
1.94065e-33
2.1503e-31
2.27142e-29
2.26333e-27
2.09272e-25
1.74411e-23
1.24022e-21
6.74351e-20
2.14398e-18
2.20708e-18
2.20699e-18
2.14082e-18
6.54502e-20
5.02959e-44
6.70134e-42
8.87598e-40
1.15642e-37
1.47669e-35
1.84079e-33
2.23024e-31
2.6133e-29
2.94362e-27
3.15908e-25
3.17987e-23
2.91365e-21
2.29767e-19
1.40365e-17
5.18713e-16
5.31877e-16
5.3186e-16
5.18059e-16
1.36004e-17
4.2058e-42
5.7813e-40
7.91828e-38
1.06999e-35
1.42234e-33
1.8543e-31
2.36365e-29
2.93631e-27
3.53998e-25
4.11034e-23
4.52463e-21
4.57829e-19
4.03734e-17
2.84267e-15
1.30355e-13
1.3302e-13
1.33017e-13
1.30216e-13
2.7418e-15
3.20056e-40
4.53049e-38
6.40603e-36
8.96615e-34
1.2396e-31
1.68965e-29
2.26722e-27
2.99072e-25
3.86861e-23
4.87384e-21
5.88453e-19
6.61225e-17
6.64316e-15
5.68642e-13
3.55831e-11
3.61155e-11
3.61151e-11
3.55532e-11
5.4511e-13
2.1777e-38
3.16461e-36
4.60591e-34
6.65877e-32
9.55093e-30
1.35837e-27
1.91599e-25
2.68165e-23
3.72069e-21
5.08569e-19
6.74567e-17
8.50562e-15
1.01059e-12
1.14029e-10
1.05094e-08
1.06169e-08
1.06168e-08
1.05038e-08
1.09371e-10
1.29492e-36
1.92198e-34
2.86441e-32
4.25459e-30
6.29678e-28
9.29265e-26
1.37005e-23
2.02282e-21
2.99261e-19
4.41479e-17
6.42927e-15
9.24175e-13
1.36699e-10
2.18217e-08
3.04766e-06
3.06868e-06
3.06868e-06
3.04699e-06
2.1288e-08
6.52976e-35
9.81561e-33
1.48436e-30
2.2427e-28
3.38697e-26
5.12148e-24
7.77874e-22
1.19157e-19
1.84553e-17
2.8845e-15
4.542e-13
7.40327e-11
1.376e-08
3.13455e-06
0.000728838
0.000731957
0.000731957
0.000728836
3.1459e-06
2.68306e-33
4.02792e-31
6.08364e-29
9.17947e-27
1.38391e-24
2.0871e-22
3.15682e-20
4.8073e-18
7.39228e-16
1.14365e-13
1.74762e-11
2.53709e-09
3.29417e-07
3.51489e-05
0.00270429
0.0027391
0.0027391
0.00270428
3.54748e-05
8.53036e-32
1.25007e-29
1.83576e-27
2.67761e-25
3.86833e-23
5.51375e-21
7.70794e-19
1.04709e-16
1.36314e-14
1.66735e-12
1.86593e-10
1.84495e-08
1.53782e-06
0.000100921
0.00464445
0.00474381
0.00474381
0.00464446
0.000102455
1.97659e-30
2.73375e-28
3.75042e-26
5.04102e-24
6.59351e-22
8.31997e-20
1.00202e-17
1.13686e-15
1.19609e-13
1.14489e-11
9.73721e-10
7.13712e-08
4.32315e-06
0.000203123
0.00663176
0.00683048
0.00683048
0.00663183
0.000207443
3.19742e-29
4.02877e-27
4.97025e-25
5.91862e-23
6.75064e-21
7.30895e-19
7.43414e-17
7.01775e-15
6.06048e-13
4.7052e-11
3.21287e-09
1.87472e-07
8.97821e-06
0.000331853
0.00850724
0.00882993
0.00882993
0.00850742
0.000340828
3.67561e-28
4.15423e-26
4.55461e-24
4.77194e-22
4.7423e-20
4.43252e-18
3.85877e-16
3.09348e-14
2.25302e-12
1.4662e-10
8.34808e-09
4.04381e-07
1.60212e-05
0.000488821
0.0103504
0.0108228
0.0108228
0.0103508
0.000504839
3.15326e-27
3.18913e-25
3.11034e-23
2.88025e-21
2.51486e-19
2.05399e-17
1.55481e-15
1.07905e-13
6.77677e-12
3.78984e-10
1.8488e-08
7.65415e-07
2.58704e-05
0.000672859
0.0121674
0.0128136
0.0128136
0.0121681
0.000698726
2.13145e-26
1.93903e-24
1.69424e-22
1.3991e-20
1.08482e-18
7.83852e-17
5.23185e-15
3.19219e-13
1.75807e-11
8.60313e-10
3.66575e-08
1.32372e-06
3.89905e-05
0.000883883
0.0139686
0.0148122
0.0148122
0.0139699
0.000922871
1.17457e-25
9.6987e-24
7.67262e-22
5.71735e-20
3.98741e-18
2.5837e-16
1.54212e-14
8.39238e-13
4.11288e-11
1.78721e-09
6.75013e-08
2.15756e-06
5.62045e-05
0.00112704
0.0158004
0.0168692
0.0168692
0.0158026
0.00118325
5.31299e-25
4.00099e-23
2.88414e-21
1.95468e-19
1.2377e-17
7.26933e-16
3.92677e-14
1.93132e-12
8.54308e-11
3.34694e-09
1.1386e-07
3.27564e-06
7.67814e-05
0.00138628
0.0175521
0.0188585
0.0188586
0.0175554
0.00146306
2.10462e-24
1.45244e-22
9.59701e-21
5.95505e-19
3.44828e-17
1.85e-15
9.11909e-14
4.08881e-12
1.64746e-10
5.87474e-09
1.81804e-07
4.75637e-06
0.000101396
0.00166658
0.0192744
0.0208351
0.0208352
0.0192792
0.00176798
7.54159e-24
4.77899e-22
2.90723e-20
1.66071e-18
8.84708e-17
4.36327e-15
1.97557e-13
8.13067e-12
3.00511e-10
9.82495e-09
2.78671e-07
6.68141e-06
0.000130574
0.00196992
0.0209868
0.0228197
0.02282
0.0209934
0.00210049
2.53332e-23
1.45788e-21
8.15885e-20
4.30578e-18
2.12176e-16
9.67896e-15
4.05131e-13
1.54034e-11
5.25575e-10
1.58535e-08
4.14678e-07
9.16686e-06
0.000165217
0.00230147
0.0227211
0.0248486
0.024849
0.0227302
0.00246669
8.81632e-23
4.30267e-21
2.14526e-19
1.03311e-17
4.69868e-16
1.98813e-14
7.73381e-13
2.73434e-11
8.67612e-10
2.43333e-08
5.917e-07
1.216e-05
0.000203826
0.00264397
0.0243929
0.0268216
0.0268222
0.0244051
0.0028478
4.40195e-22
1.57976e-20
6.24005e-19
2.54473e-17
1.02652e-15
3.95604e-14
1.42087e-12
4.66884e-11
1.38098e-09
3.61536e-08
8.21138e-07
1.57692e-05
0.000247171
0.00300258
0.0260367
0.0287779
0.0287787
0.0260525
0.00324975
3.59344e-21
9.81559e-20
2.83059e-18
8.51213e-17
2.67301e-15
8.55347e-14
2.68496e-12
7.96778e-11
2.16833e-09
5.27447e-08
1.1188e-06
2.01217e-05
0.000295932
0.00338023
0.0276709
0.0307447
0.0307458
0.027691
0.00367616
3.50927e-20
8.70208e-19
2.14216e-17
5.10739e-16
1.19993e-14
2.82912e-13
6.74885e-12
1.60957e-10
3.7215e-09
8.02031e-08
1.54849e-06
2.57582e-05
0.000353689
0.00379545
0.0293704
0.0328822
0.0328836
0.0293962
0.00414913
3.22064e-19
7.81879e-18
1.85059e-16
4.11191e-15
8.5821e-14
1.68865e-12
3.15587e-11
5.65905e-10
9.81203e-09
1.63896e-07
2.57958e-06
3.67451e-05
0.000448943
0.00440256
0.031732
0.0365566
0.036559
0.0317687
0.00485148
2.54022e-18
6.14541e-17
1.44391e-15
3.163e-14
6.43076e-13
1.20793e-11
2.0871e-10
3.30486e-09
4.78324e-08
6.3173e-07
7.59414e-06
8.23789e-05
0.000787529
0.00631686
0.0390528
0.0518453
0.0518522
0.039135
0.00710429
1.64101e-17
3.97116e-16
9.32544e-15
2.03885e-13
4.12721e-12
7.68682e-11
1.3077e-09
2.01508e-08
2.78511e-07
3.41303e-06
3.65707e-05
0.000336668
0.00260002
0.016244
0.077187
0.139026
0.139059
0.0775232
0.0188437
8.24665e-17
1.99779e-15
4.69538e-14
1.02712e-12
2.07923e-11
3.8693e-10
6.5677e-09
1.00738e-07
1.38052e-06
1.66673e-05
0.000174141
0.00153798
0.0111167
0.0627217
0.255248
0.554306
0.554463
0.256785
0.0738379
2.99349e-16
7.26022e-15
1.70817e-13
3.74032e-12
7.57814e-11
1.41116e-09
2.39609e-08
3.67452e-07
5.03045e-06
6.05897e-05
0.00063017
0.0055207
0.0393554
0.216895
0.848773
1.94143
1.942
0.854291
0.25625
6.99131e-16
1.69709e-14
3.99617e-13
8.75729e-12
1.77565e-10
3.30891e-09
5.62196e-08
8.62593e-07
1.18126e-05
0.000142276
0.00147899
0.0129397
0.0919992
0.504558
1.95904
4.53738
4.53872
1.97197
0.596556
9.15976e-16
2.2233e-14
5.23486e-13
1.14709e-11
2.3257e-10
4.33356e-09
7.36219e-08
1.12947e-06
1.54651e-05
0.000186231
0.00193534
0.0169247
0.120247
0.65869
2.55261
5.92449
5.92624
2.56952
0.778935
9.82089e-16
2.38358e-14
5.61184e-13
1.22961e-11
2.49285e-10
4.64472e-09
7.89036e-08
1.21043e-06
1.65726e-05
0.000199552
0.00207356
0.0181307
0.128781
0.705088
2.72988
6.33888
6.34075
2.748
0.833868
9.96148e-16
2.4177e-14
5.69218e-13
1.24723e-11
2.5286e-10
4.71142e-09
8.00387e-08
1.22788e-06
1.68118e-05
0.000202436
0.00210352
0.0183919
0.13062
0.714926
2.76611
6.42404
6.42594
2.78449
0.845545
9.98717e-16
2.42403e-14
5.70733e-13
1.25061e-11
2.53557e-10
4.72468e-09
8.02683e-08
1.23147e-06
1.68618e-05
0.000203044
0.00210987
0.0184469
0.130994
0.716748
2.77152
6.43727
6.43918
2.78995
0.847742
9.99587e-16
2.42627e-14
5.71293e-13
1.25191e-11
2.53835e-10
4.73012e-09
8.0365e-08
1.23301e-06
1.68835e-05
0.000203309
0.00211259
0.0184694
0.131133
0.717254
2.77189
6.4388
6.44071
2.79034
0.848385
1.00054e-15
2.42871e-14
5.71894e-13
1.25328e-11
2.54125e-10
4.73572e-09
8.04625e-08
1.23453e-06
1.69042e-05
0.000203555
0.00211503
0.0184886
0.131241
0.717576
2.77167
6.43887
6.44078
2.79014
0.848816
1.00194e-15
2.43219e-14
5.7273e-13
1.25514e-11
2.54505e-10
4.74281e-09
8.05821e-08
1.23633e-06
1.69282e-05
0.000203828
0.00211763
0.0185083
0.131347
0.717861
2.77139
6.43875
6.44067
2.78988
0.849207
1.00395e-15
2.43704e-14
5.73861e-13
1.25758e-11
2.54991e-10
4.75161e-09
8.07265e-08
1.23844e-06
1.69554e-05
0.000204129
0.00212041
0.0185285
0.131449
0.718115
2.77107
6.43857
6.44049
2.78958
0.849564
1.00642e-15
2.44287e-14
5.75191e-13
1.26039e-11
2.55536e-10
4.76128e-09
8.08813e-08
1.24065e-06
1.69831e-05
0.000204428
0.00212309
0.0185472
0.131539
0.718298
2.77061
6.43819
6.44011
2.78914
0.849836
1.00858e-15
2.44789e-14
5.76319e-13
1.26274e-11
2.55985e-10
4.76911e-09
8.10045e-08
1.24238e-06
1.70044e-05
0.000204652
0.00212502
0.0185598
0.131589
0.718311
2.76976
6.43729
6.43921
2.7883
0.849899
1.00954e-15
2.4501e-14
5.76813e-13
1.26376e-11
2.56179e-10
4.77246e-09
8.10567e-08
1.24311e-06
1.70131e-05
0.000204739
0.00212569
0.0185629
0.131585
0.718106
2.76845
6.43578
6.4377
2.78699
0.84969
1.0098e-15
2.45071e-14
5.76948e-13
1.26404e-11
2.56231e-10
4.77335e-09
8.10703e-08
1.24328e-06
1.70149e-05
0.000204752
0.00212568
0.0185608
0.13155
0.717781
2.7669
6.43394
6.43586
2.78545
0.84933
1.00985e-15
2.45083e-14
5.76973e-13
1.26409e-11
2.5624e-10
4.77348e-09
8.10717e-08
1.24329e-06
1.70146e-05
0.00020474
0.00212541
0.0185566
0.131502
0.717407
2.76529
6.432
6.43392
2.78383
0.848908
1.00985e-15
2.45081e-14
5.76966e-13
1.26407e-11
2.56235e-10
4.77334e-09
8.10684e-08
1.24321e-06
1.70131e-05
0.000204712
0.00212497
0.0185509
0.131443
0.71699
2.76359
6.42987
6.43179
2.78213
0.848432
1.00973e-15
2.45046e-14
5.76874e-13
1.26384e-11
2.56183e-10
4.77227e-09
8.1048e-08
1.24286e-06
1.70075e-05
0.000204632
0.00212396
0.01854
0.131348
0.716382
2.76124
6.4262
6.42812
2.77976
0.847726
1.00882e-15
2.44784e-14
5.76168e-13
1.26211e-11
2.55799e-10
4.76452e-09
8.09067e-08
1.24055e-06
1.69738e-05
0.000204202
0.0021192
0.0184957
0.131014
0.714479
2.75394
6.41093
6.41284
2.7724
0.845471
1.00317e-15
2.4315e-14
5.71769e-13
1.25135e-11
2.5341e-10
4.71649e-09
8.00364e-08
1.22645e-06
1.67715e-05
0.000201667
0.00209197
0.0182509
0.129239
0.704644
2.71592
6.32386
6.32572
2.73405
0.833739
9.76396e-16
2.35388e-14
5.50828e-13
1.20008e-11
2.42012e-10
4.48711e-09
7.58795e-08
1.15912e-06
1.58072e-05
0.000189616
0.00196295
0.0170966
0.120907
0.658618
2.53733
5.90805
5.90965
2.55385
0.77879
8.88826e-16
2.09941e-14
4.82054e-13
1.03139e-11
2.04457e-10
3.73032e-09
6.21482e-08
9.36511e-07
1.26158e-05
0.000149708
0.00153551
0.0132714
0.0932887
0.505944
1.94382
4.5209
4.52165
1.95501
0.596521
7.27903e-16
1.63091e-14
3.55228e-13
7.19879e-12
1.35013e-10
2.32921e-09
3.66968e-08
5.23443e-07
6.68783e-06
7.55069e-05
0.000740056
0.00614674
0.0418055
0.221085
0.83525
1.92657
1.92573
0.836484
0.256482
6.40323e-16
1.37639e-14
2.86431e-13
5.51118e-12
9.74375e-11
1.57193e-09
2.29554e-08
3.00652e-07
3.49372e-06
3.55649e-05
0.000312282
0.00231912
0.0141759
0.0683875
0.241763
0.539437
0.537743
0.237663
0.0741781
6.13448e-16
1.29846e-14
2.65404e-13
4.99613e-12
8.59838e-11
1.34135e-09
1.87753e-08
2.32939e-07
2.52372e-06
2.3445e-05
0.000182597
0.00116
0.00582142
0.0223132
0.0632217
0.123648
0.121699
0.0575118
0.0191583
6.07577e-16
1.2815e-14
2.60835e-13
4.88429e-12
8.34971e-11
1.29127e-09
1.78668e-08
2.18209e-07
2.31252e-06
2.08047e-05
0.000154353
0.00090797
0.00401188
0.0124056
0.0252762
0.0366223
0.0346187
0.0192214
0.0073194
6.06261e-16
1.27777e-14
2.59842e-13
4.86013e-12
8.29602e-11
1.28043e-09
1.76697e-08
2.15002e-07
2.26644e-06
2.02288e-05
0.000148219
0.000853867
0.00363208
0.0104052
0.0180727
0.0214056
0.0193919
0.0119494
0.00492042
6.05333e-16
1.27539e-14
2.5925e-13
4.84644e-12
8.26684e-11
1.27474e-09
1.7569e-08
2.13406e-07
2.24409e-06
1.99573e-05
0.00014543
0.000830408
0.00347822
0.00967459
0.0158493
0.0178147
0.0157985
0.00970245
0.00403589
6.03007e-16
1.27005e-14
2.58058e-13
4.8216e-12
8.21889e-11
1.26623e-09
1.74312e-08
2.11397e-07
2.21811e-06
1.96648e-05
0.000142635
0.000808539
0.0033452
0.00909525
0.0142829
0.0157426
0.0137283
0.00812864
0.00334229
5.93268e-16
1.24908e-14
2.53682e-13
4.73716e-12
8.06916e-11
1.24201e-09
1.70773e-08
2.06774e-07
2.16487e-06
1.91339e-05
0.000138158
0.000777663
0.00317933
0.00845313
0.0127135
0.0137635
0.0117738
0.00662134
0.00265584
5.51872e-16
1.16155e-14
2.35812e-13
4.40126e-12
7.49216e-11
1.15224e-09
1.58257e-08
1.91342e-07
1.99935e-06
1.76218e-05
0.00012672
0.000708716
0.00286581
0.00745981
0.0107417
0.0114039
0.00954315
0.00503264
0.00193977
4.20105e-16
8.83992e-15
1.79408e-13
3.34722e-12
5.69506e-11
8.75299e-10
1.2012e-08
1.45072e-07
1.5136e-06
1.33126e-05
9.54361e-05
0.000531164
0.00212986
0.00545262
0.00757203
0.00789841
0.00647502
0.00319817
0.0011733
1.79318e-16
3.76952e-15
7.64286e-14
1.42448e-12
2.4211e-11
3.71697e-10
5.09488e-09
6.14532e-08
6.40251e-07
5.62189e-06
4.02215e-05
0.000223265
0.000891716
0.00226693
0.00310256
0.00321238
0.00261007
0.00125145
0.000447943
4.92322e-17
1.03363e-15
2.09317e-14
3.89645e-13
6.61419e-12
1.01413e-10
1.38824e-09
1.67217e-08
1.73966e-07
1.52521e-06
1.08937e-05
6.03512e-05
0.000240439
0.000608938
0.000827632
0.000853834
0.000690672
0.000326317
0.000115336
9.75959e-18
2.04625e-16
4.13836e-15
7.69335e-14
1.30419e-12
1.99696e-11
2.72987e-10
3.28359e-09
3.41121e-08
2.98628e-07
2.12959e-06
1.1778e-05
4.68317e-05
0.000118304
0.000160153
0.000164877
0.000133021
6.232e-05
2.18679e-05
1.50324e-18
3.14736e-17
6.35664e-16
1.18011e-14
1.9978e-13
3.05476e-12
4.17006e-11
5.00882e-10
5.19602e-09
4.5421e-08
3.23421e-07
1.78591e-06
7.08909e-06
1.78727e-05
2.41324e-05
2.48099e-05
1.99812e-05
9.31087e-06
3.25234e-06
1.88786e-19
3.94702e-18
7.96072e-17
1.47587e-15
2.49501e-14
3.8097e-13
5.1933e-12
6.22902e-11
6.45257e-10
5.63234e-09
4.00462e-08
2.208e-07
8.75086e-07
2.20252e-06
2.96843e-06
3.04873e-06
2.45221e-06
1.13844e-06
3.96458e-07
1.99889e-20
4.17318e-19
8.40522e-18
1.55611e-16
2.62699e-15
4.00559e-14
5.45264e-13
6.53079e-12
6.75551e-11
5.8883e-10
4.18054e-09
2.30162e-08
9.10841e-08
2.28909e-07
3.08074e-07
3.16166e-07
2.54047e-07
1.17622e-07
4.08745e-08
1.82847e-21
3.81189e-20
7.6669e-19
1.41744e-17
2.38955e-16
3.63843e-15
4.94585e-14
5.91539e-13
6.11023e-12
5.31824e-11
3.7704e-10
2.07285e-09
8.19136e-09
2.05578e-08
2.76362e-08
2.83444e-08
2.27565e-08
1.05143e-08
3.64823e-09
1.47196e-22
3.06423e-21
6.15458e-20
1.13626e-18
1.91286e-17
2.9085e-16
3.94806e-15
4.71533e-14
4.86374e-13
4.2273e-12
2.99272e-11
1.64298e-10
6.48362e-10
1.62508e-09
2.18256e-09
2.23733e-09
1.79498e-09
8.27993e-10
2.86973e-10
1.05779e-23
2.19888e-22
4.41039e-21
8.13118e-20
1.36694e-18
2.07553e-17
2.81341e-16
3.35544e-15
3.45615e-14
2.99967e-13
2.12062e-12
1.16258e-11
4.58162e-11
1.14694e-10
1.53914e-10
1.57705e-10
1.26446e-10
5.82507e-11
2.01724e-11
6.46237e-25
1.34156e-23
2.68733e-22
4.94805e-21
8.30738e-20
1.25972e-18
1.70533e-17
2.0312e-16
2.08941e-15
1.81105e-14
1.27865e-13
7.00079e-13
2.75549e-12
6.8902e-12
9.24014e-12
9.46422e-12
7.58431e-12
3.4903e-12
1.208e-12
)
;

boundaryField
{
    top
    {
        type            zeroGradient;
    }
    left
    {
        type            fixedValue;
        value           uniform 0;
    }
    bottom
    {
        type            zeroGradient;
    }
    right
    {
        type            zeroGradient;
    }
    frontAndBack
    {
        type            empty;
    }
}


// ************************************************************************* //
