/*--------------------------------*- C++ -*----------------------------------*\
| =========                 |                                                 |
| \\      /  F ield         | OpenFOAM: The Open Source CFD Toolbox           |
|  \\    /   O peration     | Version:  v1806                                 |
|   \\  /    A nd           | Web:      www.OpenFOAM.com                      |
|    \\/     M anipulation  |                                                 |
\*---------------------------------------------------------------------------*/
FoamFile
{
    version     2.0;
    format      ascii;
    class       volScalarField;
    location    "0.09";
    object      T;
}
// * * * * * * * * * * * * * * * * * * * * * * * * * * * * * * * * * * * * * //

dimensions      [0 0 0 1 0 0 0];


internalField   nonuniform List<scalar> 
1881
(
1.54755e-85
1.16321e-83
8.48624e-82
5.90179e-80
3.88729e-78
2.40622e-76
1.38666e-74
7.35381e-73
3.53667e-71
1.51312e-69
5.60959e-68
1.73451e-66
4.21054e-65
7.19219e-64
6.69064e-63
7.32923e-63
7.3252e-63
6.65112e-63
7.17956e-64
2.48738e-83
1.91523e-81
1.43172e-79
1.02081e-77
6.89748e-76
4.38282e-74
2.5948e-72
1.41505e-70
7.00604e-69
3.08999e-67
1.1828e-65
3.78296e-64
9.51728e-63
1.68796e-61
1.63156e-60
1.7818e-60
1.78089e-60
1.62227e-60
1.68172e-61
3.96867e-81
3.13087e-79
2.39863e-77
1.75379e-75
1.216e-73
7.93497e-72
4.82884e-70
2.70981e-68
1.38242e-66
6.29225e-65
2.49013e-63
8.25043e-62
2.15483e-60
3.97543e-59
4.0003e-58
4.35501e-58
4.35295e-58
3.9784e-58
3.95286e-59
6.2411e-79
5.04611e-77
3.96344e-75
2.97296e-73
2.1163e-71
1.41909e-69
8.88372e-68
5.13498e-66
2.70241e-64
1.27117e-62
5.2093e-61
1.79122e-59
4.86618e-58
9.35786e-57
9.82382e-56
1.06608e-55
1.06562e-55
9.77218e-56
9.28587e-57
9.66264e-77
8.00957e-75
6.4522e-73
4.96741e-71
3.63249e-69
2.5048e-67
1.6145e-65
9.62302e-64
5.23135e-62
2.54696e-60
1.08273e-58
3.87111e-57
1.09613e-55
2.20185e-54
2.41675e-53
2.61418e-53
2.61312e-53
2.40458e-53
2.18043e-54
1.47099e-74
1.25053e-72
1.03362e-70
8.17185e-69
6.14285e-67
4.35955e-65
2.89628e-63
1.78233e-61
1.00236e-59
5.05966e-58
2.23537e-56
8.32687e-55
2.46267e-53
5.17854e-52
5.95618e-51
6.42166e-51
6.41929e-51
5.92753e-51
5.11765e-52
2.19896e-72
1.91794e-70
1.62735e-68
1.32204e-66
1.02237e-64
7.47485e-63
5.12444e-61
3.26047e-59
1.89998e-57
9.96147e-56
4.58282e-54
1.7823e-52
5.51737e-51
1.21723e-49
1.47051e-48
1.58019e-48
1.57966e-48
1.46377e-48
1.20048e-49
3.22309e-70
2.88545e-68
2.51465e-66
2.10064e-64
1.67268e-62
1.26127e-60
8.93453e-59
5.88652e-57
3.56055e-55
1.94266e-53
9.32544e-52
3.79447e-50
1.23221e-48
2.85868e-47
3.63651e-46
3.89474e-46
3.89356e-46
3.62069e-46
2.81369e-47
4.62466e-68
4.25161e-66
3.8081e-64
3.27372e-62
2.68684e-60
2.09204e-58
1.53349e-56
1.04796e-54
6.59162e-53
3.75003e-51
1.88223e-49
8.03023e-48
2.74175e-46
6.70527e-45
9.00659e-44
9.61381e-44
9.61118e-44
8.96949e-44
6.58684e-45
6.4844e-66
6.12511e-64
5.64251e-62
4.99644e-60
4.23142e-58
3.40671e-56
2.58807e-54
1.83771e-52
1.20433e-50
7.15865e-49
3.76494e-47
1.68793e-45
6.07386e-44
1.57009e-42
2.23373e-41
2.37628e-41
2.3757e-41
2.22506e-41
1.53942e-42
8.86741e-64
8.61154e-62
8.16567e-60
7.45549e-58
6.52327e-56
5.43834e-54
4.28904e-52
3.17025e-50
2.16887e-48
1.34978e-46
7.45457e-45
3.52029e-43
1.33854e-41
3.66823e-40
5.54647e-39
5.88035e-39
5.87908e-39
5.52627e-39
3.58996e-40
1.18011e-61
1.17908e-59
1.15185e-57
1.08557e-55
9.82633e-54
8.49603e-52
6.96802e-50
5.37144e-48
3.84387e-46
2.50991e-44
1.45895e-42
7.27526e-41
2.93153e-39
8.54532e-38
1.37839e-36
1.45638e-36
1.4561e-36
1.37371e-36
8.34837e-38
1.52472e-59
1.56849e-57
1.58014e-55
1.53905e-53
1.44324e-51
1.29623e-49
1.1075e-47
8.92069e-46
6.69106e-44
4.59401e-42
2.81737e-40
1.48767e-38
6.37284e-37
1.98317e-35
3.42643e-34
3.60791e-34
3.60731e-34
3.41563e-34
1.93433e-35
1.90726e-57
2.02172e-55
2.10253e-53
2.11903e-51
2.06161e-49
1.92653e-47
1.71781e-45
1.44855e-43
1.14116e-41
8.25748e-40
5.35684e-38
3.00435e-36
1.37305e-34
4.5794e-33
8.51215e-32
8.9324e-32
8.93112e-32
8.48745e-32
4.46016e-33
2.30254e-55
2.51713e-53
2.70517e-51
2.82473e-49
2.85536e-47
2.78073e-45
2.59218e-43
2.29278e-41
1.90118e-39
1.45342e-37
1.00025e-35
5.97837e-34
2.926e-32
1.05037e-30
2.11143e-29
2.20811e-29
2.20784e-29
2.10584e-29
1.02169e-30
2.67294e-53
3.01605e-51
3.35315e-49
3.63214e-47
3.82012e-45
3.88319e-43
3.79102e-41
3.52402e-39
3.0826e-37
2.49634e-35
1.82827e-33
1.16873e-31
6.15087e-30
2.38834e-28
5.22899e-27
5.44945e-27
5.4489e-27
5.21643e-27
2.32021e-28
2.97085e-51
3.46277e-49
3.98648e-47
4.4847e-45
4.91427e-43
5.22198e-41
5.34815e-39
5.23516e-37
4.84235e-35
4.1658e-33
3.25766e-31
2.23592e-29
1.27126e-27
5.37447e-26
1.29546e-24
1.3452e-24
1.34509e-24
1.29266e-24
5.21352e-26
3.14511e-49
3.78937e-47
4.52124e-45
5.28789e-43
6.04417e-41
6.72326e-39
7.2354e-37
7.47317e-35
7.32748e-33
6.71667e-31
5.62823e-29
4.16548e-27
2.57388e-25
1.19639e-23
3.22706e-22
3.33804e-22
3.33782e-22
3.22083e-22
1.15832e-23
3.15174e-47
3.92711e-45
4.85921e-43
5.91314e-41
7.05711e-39
8.22746e-37
9.31826e-35
1.01756e-32
1.06029e-30
1.03878e-28
9.36279e-27
7.51157e-25
5.08785e-23
2.63875e-21
8.14095e-20
8.38623e-20
8.3858e-20
8.12715e-20
2.5487e-21
2.96695e-45
3.82374e-43
4.9081e-41
6.21715e-39
7.75251e-37
9.48178e-35
1.13171e-32
1.30902e-30
1.45308e-28
1.52633e-26
1.48633e-24
1.30204e-22
9.79179e-21
5.78148e-19
2.08811e-17
2.14199e-17
2.14191e-17
2.08509e-17
5.57246e-19
2.59905e-43
3.46336e-41
4.61063e-39
6.07911e-37
7.9215e-35
1.01691e-32
1.28033e-30
1.57103e-28
1.86189e-26
2.10381e-24
2.22592e-22
2.15146e-20
1.82822e-18
1.25669e-16
5.40264e-15
5.52029e-15
5.52014e-15
5.39634e-15
1.21106e-16
2.09373e-41
2.88161e-39
3.9747e-37
5.45022e-35
7.41704e-33
9.99133e-31
1.32723e-28
1.72907e-26
2.19164e-24
2.67351e-22
3.0966e-20
3.34888e-18
3.28049e-16
2.67198e-14
1.37363e-12
1.39886e-12
1.39883e-12
1.37245e-12
2.58431e-14
1.52788e-39
2.16707e-37
3.09027e-35
4.39759e-33
6.23789e-31
8.8031e-29
1.23233e-26
1.70366e-24
2.3115e-22
3.05557e-20
3.90951e-18
4.80418e-16
5.51545e-14
5.36087e-12
3.28459e-10
3.3358e-10
3.33577e-10
3.28272e-10
5.22648e-12
9.9059e-38
1.4422e-35
2.11747e-33
3.11395e-31
4.5846e-29
6.75011e-27
9.91989e-25
1.45074e-22
2.1039e-20
3.01994e-18
4.29968e-16
6.06863e-14
8.218e-12
9.51419e-10
6.96539e-08
7.05757e-08
7.05754e-08
6.96323e-08
9.37808e-10
5.56313e-36
8.25807e-34
1.23932e-31
1.86877e-29
2.83188e-27
4.31175e-25
6.59135e-23
1.01052e-20
1.5536e-18
2.40641e-16
3.79705e-14
6.12813e-12
9.71974e-10
1.33954e-07
1.21147e-05
1.22463e-05
1.22463e-05
1.21134e-05
1.33547e-07
2.61728e-34
3.91729e-32
5.93403e-30
9.04519e-28
1.38823e-25
2.14616e-23
3.34254e-21
5.24499e-19
8.30813e-17
1.33988e-14
2.24128e-12
3.94484e-10
7.09401e-08
1.17878e-05
0.00152665
0.00153836
0.00153836
0.00152664
1.18556e-05
9.87443e-33
1.46322e-30
2.18993e-28
3.28922e-26
4.95727e-24
7.49216e-22
1.13364e-19
1.7103e-17
2.5494e-15
3.69041e-13
5.04622e-11
6.26725e-09
6.70613e-07
5.74018e-05
0.0034818
0.00353852
0.00353852
0.0034818
5.8069e-05
2.83079e-31
4.03832e-29
5.77079e-27
8.18374e-25
1.14686e-22
1.57773e-20
2.11022e-18
2.70848e-16
3.28034e-14
3.67118e-12
3.69924e-10
3.24741e-08
2.37601e-06
0.000135695
0.00540353
0.00553681
0.00553681
0.00540355
0.000138068
5.84519e-30
7.75436e-28
1.01578e-25
1.29746e-23
1.60484e-21
1.90556e-19
2.14883e-17
2.27164e-15
2.2167e-13
1.95968e-11
1.53362e-09
1.03103e-07
5.71281e-06
0.000245021
0.00729473
0.00753393
0.00753393
0.00729483
0.000250731
8.492e-29
1.02292e-26
1.20085e-24
1.35459e-22
1.45774e-20
1.48405e-18
1.41526e-16
1.24965e-14
1.00751e-12
7.29123e-11
4.63513e-09
2.51553e-07
1.11971e-05
0.000384537
0.00916449
0.00953758
0.00953758
0.00916474
0.000395731
8.80691e-28
9.56021e-26
1.00309e-23
1.00206e-21
9.46297e-20
8.37923e-18
6.89193e-16
5.20773e-14
3.56767e-12
2.18008e-10
1.16382e-08
5.27963e-07
1.95728e-05
0.000558606
0.0110725
0.011611
0.011611
0.011073
0.000578176
6.70939e-27
6.53657e-25
6.12631e-23
5.43756e-21
4.53954e-19
3.5371e-17
2.5492e-15
1.68138e-13
1.00199e-11
5.30996e-10
2.45186e-08
9.59925e-07
3.06618e-05
0.0007535
0.0128853
0.0136072
0.0136072
0.0128863
0.000784159
4.06919e-26
3.57514e-24
3.01361e-22
2.39737e-20
1.78809e-18
1.24104e-16
7.9456e-15
4.64415e-13
2.44716e-11
1.14445e-09
4.65563e-08
1.60367e-06
4.50301e-05
0.000972915
0.0146663
0.0155927
0.0155927
0.0146679
0.00101794
2.05656e-25
1.63919e-23
1.2516e-21
8.99776e-20
6.05164e-18
3.78009e-16
2.17419e-14
1.1398e-12
5.3791e-11
2.25017e-09
8.17907e-08
2.51537e-06
6.30385e-05
0.00121632
0.0164244
0.0175753
0.0175754
0.0164269
0.00127936
8.99061e-25
6.54504e-23
4.55966e-21
2.98507e-19
1.82515e-17
1.03481e-15
5.395e-14
2.56055e-12
1.09287e-10
4.13094e-09
1.35586e-07
3.7637e-06
8.5141e-05
0.0014843
0.0181708
0.0195664
0.0195665
0.0181746
0.00156944
3.46009e-24
2.3195e-22
1.4869e-20
8.94209e-19
5.01445e-17
2.60359e-15
1.24133e-13
5.38093e-12
2.09517e-10
7.21759e-09
2.15726e-07
5.45028e-06
0.000112213
0.00178209
0.0199424
0.021607
0.0216073
0.0199478
0.0018943
1.16108e-23
7.20641e-22
4.27715e-20
2.37913e-18
1.23282e-16
5.90958e-15
2.59908e-13
1.0385e-11
3.72469e-10
1.18121e-08
3.2487e-07
7.55095e-06
0.000143048
0.00209265
0.0216449
0.0235873
0.0235876
0.0216524
0.0022357
3.54922e-23
2.049e-21
1.13149e-19
5.85149e-18
2.81701e-16
1.25374e-14
5.11641e-13
1.89588e-11
6.30296e-10
1.85212e-08
4.71875e-07
1.01598e-05
0.000178361
0.00242103
0.0233179
0.0255509
0.0255513
0.023328
0.00259938
1.0054e-22
5.42024e-21
2.79645e-19
1.35036e-17
6.06697e-16
2.5187e-14
9.5837e-13
3.30984e-11
1.02524e-09
2.80628e-08
6.65922e-07
1.33556e-05
0.000218516
0.00276818
0.0249733
0.0275104
0.027511
0.0249867
0.0029867
2.67757e-22
1.35296e-20
6.54574e-19
2.96249e-17
1.24687e-15
4.84711e-14
1.72636e-12
5.579e-11
1.61667e-09
4.13912e-08
9.18704e-07
1.72378e-05
0.000264025
0.00313586
0.0266232
0.0294788
0.0294797
0.0266404
0.00339989
6.7295e-22
3.20113e-20
1.45866e-18
6.21403e-17
2.46046e-15
8.99353e-14
3.0104e-12
9.13933e-11
2.4871e-09
5.97842e-08
1.24571e-06
2.19454e-05
0.000315774
0.00352858
0.0282899
0.0314822
0.0314833
0.0283119
0.00384435
1.57345e-21
7.07259e-20
3.04742e-18
1.22712e-16
4.59105e-15
1.58512e-13
5.01024e-12
1.43594e-10
3.68817e-09
8.3664e-08
1.64513e-06
2.73557e-05
0.000371764
0.00392933
0.0299055
0.0334375
0.0334391
0.0299329
0.0043011
3.50156e-21
1.49123e-19
6.0925e-18
2.32555e-16
8.24538e-15
2.69722e-13
8.07564e-12
2.19201e-10
5.33154e-09
1.14524e-07
2.13261e-06
3.35924e-05
0.000432761
0.00434272
0.0314945
0.0353733
0.0353753
0.0315281
0.00477548
7.48579e-21
3.02726e-19
1.17544e-17
4.2632e-16
1.43595e-14
4.46155e-13
1.2686e-11
3.26979e-10
7.55153e-09
1.54026e-07
2.72386e-06
4.07615e-05
0.000499257
0.00477096
0.0330698
0.0373037
0.0373063
0.0331105
0.00527022
1.54865e-20
5.95924e-19
2.20363e-17
7.60982e-16
2.44002e-14
7.21582e-13
1.9526e-11
4.78916e-10
1.05247e-08
2.04283e-07
3.4385e-06
4.89955e-05
0.000571883
0.00521641
0.0346245
0.0392239
0.0392271
0.0346735
0.00578829
3.1014e-20
1.13848e-18
4.01929e-17
1.32479e-15
4.05341e-14
1.14358e-12
2.95166e-11
6.90433e-10
1.44692e-08
2.67816e-07
4.29933e-06
5.84481e-05
0.000651286
0.00566491
0.0343074
0.0392673
0.0392714
0.0343658
0.0063162
5.94883e-20
2.08826e-18
7.05641e-17
2.22578e-15
6.51611e-14
1.75876e-12
4.34236e-11
9.71549e-10
1.94741e-08
3.44774e-07
5.29487e-06
6.88823e-05
0.000734488
0.00608445
0.0339066
0.0391937
0.0391986
0.0339755
0.00681894
1.10847e-19
3.72661e-18
1.20719e-16
3.64995e-15
1.02415e-13
2.64922e-12
6.26831e-11
1.34398e-09
2.58166e-08
4.38064e-07
6.44908e-06
8.04392e-05
0.000821766
0.00648124
0.0335168
0.0391031
0.0391091
0.0335972
0.00730301
2.02094e-19
6.51481e-18
2.02574e-16
5.87883e-15
1.58319e-13
3.93031e-12
8.92445e-11
1.83631e-09
3.38528e-08
5.51346e-07
7.79189e-06
9.32949e-05
0.000913678
0.00686157
0.0331482
0.0390116
0.0390189
0.0332415
0.00777525
3.61283e-19
1.11724e-17
3.33799e-16
9.30991e-15
2.40975e-13
5.74977e-12
1.25482e-10
2.48151e-09
4.39688e-08
6.88298e-07
9.34994e-06
0.000107569
0.00101022
0.00722439
0.032747
0.0388643
0.0388729
0.0328545
0.00823461
6.38396e-19
1.88225e-17
5.38883e-16
1.44327e-14
3.59175e-13
8.24581e-12
1.73219e-10
3.29816e-09
5.62755e-08
8.4844e-07
1.10999e-05
0.000122922
0.00110876
0.00756857
0.0324153
0.0387652
0.0387755
0.0325382
0.00867733
1.22511e-18
3.31926e-17
8.89829e-16
2.2555e-14
5.34977e-13
1.17586e-11
2.37164e-10
4.34355e-09
7.13684e-08
1.03687e-06
1.30755e-05
0.000139508
0.0012097
0.00789502
0.0320991
0.0386636
0.0386756
0.0322385
0.00910472
3.34981e-18
7.61265e-17
1.76995e-15
3.99633e-14
8.64058e-13
1.76273e-11
3.34364e-10
5.8121e-09
9.12004e-08
1.27049e-06
1.53992e-05
0.000158048
0.00131662
0.00822073
0.0318396
0.038638
0.0386521
0.0319976
0.00953735
1.57785e-17
3.00473e-16
5.80064e-15
1.08527e-13
1.96543e-12
3.42633e-11
5.6897e-10
8.8669e-09
1.27337e-07
1.65009e-06
1.88263e-05
0.000183294
0.001454
0.00864668
0.0319253
0.039238
0.0392551
0.0321084
0.0101007
9.45652e-17
1.68089e-15
2.9641e-14
4.93255e-13
7.73966e-12
1.14429e-10
1.59168e-09
2.07547e-08
2.51814e-07
2.80563e-06
2.81147e-05
0.000245549
0.0017795
0.00981254
0.0342202
0.0440292
0.0440545
0.0344655
0.011592
5.37683e-16
9.4006e-15
1.61909e-13
2.60415e-12
3.89433e-11
5.38946e-10
6.8669e-09
8.00809e-08
8.48784e-07
8.10227e-06
6.87494e-05
0.000507782
0.00314554
0.0152034
0.0490729
0.0726071
0.0726677
0.0495797
0.0183487
2.58333e-15
4.50219e-14
7.71649e-13
1.23195e-11
1.82208e-10
2.48129e-09
3.08903e-08
3.48613e-07
3.53058e-06
3.16895e-05
0.000248095
0.00165772
0.00915129
0.0394977
0.11985
0.207406
0.207622
0.121504
0.0486483
9.86621e-15
1.71918e-13
2.9448e-12
4.69568e-11
6.93055e-10
9.40679e-09
1.1652e-07
1.30521e-06
1.30759e-05
0.000115557
0.000885165
0.00574145
0.0305179
0.126473
0.376086
0.694742
0.695512
0.381815
0.15699
2.81764e-14
4.91206e-13
8.41669e-12
1.34232e-10
1.98106e-09
2.68785e-08
3.32662e-07
3.72097e-06
3.71913e-05
0.000327523
0.00249598
0.0160734
0.0846372
0.347243
1.02846
1.93559
1.93776
1.0445
0.431877
5.59293e-14
9.75439e-13
1.672e-11
2.6674e-10
3.93765e-09
5.34334e-08
6.61339e-07
7.39628e-06
7.38977e-05
0.000650308
0.00495007
0.0318221
0.16718
0.684235
2.02526
3.83204
3.83634
2.05701
0.851407
7.42451e-14
1.29485e-12
2.21944e-11
3.54062e-10
5.22643e-09
7.09162e-08
8.77625e-07
9.81363e-06
9.80282e-05
0.000862388
0.00656153
0.0421563
0.2213
0.904984
2.67766
5.07289
5.07859
2.71972
1.12627
8.15446e-14
1.42208e-12
2.43739e-11
3.88808e-10
5.73899e-09
7.7866e-08
9.6356e-07
1.07736e-05
0.000107604
0.00094649
0.00719992
0.0462446
0.242668
0.99192
2.93393
5.56022
5.56648
2.98007
1.23458
8.36211e-14
1.45828e-12
2.49943e-11
3.98705e-10
5.88504e-09
7.98471e-08
9.88062e-07
1.10473e-05
0.000110334
0.000970432
0.00738127
0.0474014
0.248677
1.01615
3.00477
5.69501
5.70142
3.05206
1.26482
8.4112e-14
1.46689e-12
2.51425e-11
4.01079e-10
5.92022e-09
8.0326e-08
9.94001e-07
1.11137e-05
0.000110995
0.000976209
0.00742459
0.0476729
0.250047
1.02146
3.0197
5.72357
5.73002
3.06726
1.2715
8.42593e-14
1.46951e-12
2.51882e-11
4.0182e-10
5.9313e-09
8.04776e-08
9.95883e-07
1.11346e-05
0.000111201
0.000977966
0.00743722
0.0477465
0.250377
1.02252
3.0221
5.72836
5.73482
3.06974
1.27289
8.43656e-14
1.4714e-12
2.5221e-11
4.02348e-10
5.93912e-09
8.05833e-08
9.97174e-07
1.11487e-05
0.000111336
0.000979063
0.00744462
0.0477854
0.250521
1.02282
3.0223
5.72893
5.73539
3.06998
1.27333
8.44919e-14
1.47359e-12
2.52584e-11
4.02938e-10
5.94768e-09
8.06965e-08
9.98524e-07
1.1163e-05
0.000111469
0.000980115
0.00745143
0.0478192
0.250634
1.02299
3.02217
5.72886
5.73533
3.06987
1.27361
8.46468e-14
1.47624e-12
2.53026e-11
4.03621e-10
5.95739e-09
8.08223e-08
9.99994e-07
1.11783e-05
0.000111607
0.000981181
0.00745812
0.0478512
0.250734
1.02312
3.02194
5.72864
5.73511
3.06968
1.27384
8.48135e-14
1.47904e-12
2.53487e-11
4.04324e-10
5.96722e-09
8.09475e-08
1.00143e-06
1.11929e-05
0.000111737
0.000982152
0.00746401
0.0478777
0.250807
1.02315
3.02155
5.72819
5.73468
3.06932
1.27395
8.49496e-14
1.4813e-12
2.53855e-11
4.04878e-10
5.97487e-09
8.10436e-08
1.00251e-06
1.12037e-05
0.00011183
0.000982818
0.00746774
0.0478918
0.250826
1.02302
3.02082
5.7273
5.73379
3.0686
1.27383
8.50196e-14
1.48246e-12
2.54042e-11
4.05156e-10
5.97866e-09
8.10902e-08
1.00302e-06
1.12086e-05
0.000111868
0.00098305
0.00746854
0.0478899
0.250776
1.02268
3.01971
5.7259
5.73239
3.06748
1.27345
8.50438e-14
1.48285e-12
2.54104e-11
4.05246e-10
5.97983e-09
8.11035e-08
1.00315e-06
1.12094e-05
0.00011187
0.00098299
0.00746739
0.0478773
0.250683
1.02222
3.01835
5.72418
5.73067
3.06612
1.27289
8.50485e-14
1.48292e-12
2.54113e-11
4.05254e-10
5.97985e-09
8.1102e-08
1.0031e-06
1.12084e-05
0.000111854
0.000982785
0.00746522
0.047859
0.250565
1.02168
3.01687
5.72227
5.72875
3.06462
1.27223
8.50408e-14
1.48277e-12
2.54084e-11
4.05201e-10
5.97893e-09
8.10873e-08
1.00288e-06
1.12055e-05
0.000111819
0.00098241
0.00746177
0.0478328
0.250409
1.02101
3.01503
5.71968
5.72616
3.06275
1.2714
8.49864e-14
1.48175e-12
2.53899e-11
4.04888e-10
5.97403e-09
8.10168e-08
1.00196e-06
1.11945e-05
0.0001117
0.000981287
0.0074526
0.0477699
0.250061
1.01957
3.01095
5.71286
5.71933
3.05861
1.26961
8.4682e-14
1.47611e-12
2.52882e-11
4.03191e-10
5.94794e-09
8.06491e-08
9.97245e-07
1.114e-05
0.00011114
0.000976224
0.00741311
0.0475109
0.248683
1.01391
2.99443
5.68234
5.68877
3.04179
1.26253
8.32813e-14
1.4502e-12
2.48215e-11
3.95412e-10
5.82858e-09
7.89736e-08
9.75882e-07
1.08949e-05
0.000108636
0.000953772
0.00723965
0.0463836
0.242722
0.989464
2.92217
5.54578
5.552
2.96825
1.23192
7.83023e-14
1.35801e-12
2.31601e-11
3.67714e-10
5.40356e-09
7.30072e-08
8.9983e-07
1.00225e-05
9.97318e-05
0.00087403
0.00662424
0.0423876
0.221595
0.902728
2.66501
5.05723
5.06273
2.70655
1.12332
6.57968e-14
1.12624e-12
1.89801e-11
2.97971e-10
4.33258e-09
5.79634e-08
7.07955e-07
7.8205e-06
7.72454e-05
0.00067256
0.00506877
0.0322828
0.16814
0.683065
2.01287
3.8163
3.81997
2.04292
0.84832
4.68524e-14
7.74904e-13
1.26395e-11
1.92116e-10
2.70613e-09
3.5104e-08
4.16239e-07
4.4709e-06
4.30232e-05
0.000365792
0.0026992
0.0168821
0.0866282
0.347926
1.01728
1.92074
1.92161
1.02982
0.428797
3.43395e-14
5.4299e-13
8.4566e-12
1.22321e-10
1.63433e-09
2.00483e-08
2.24214e-07
2.26719e-06
2.05208e-05
0.000164196
0.00114293
0.00677356
0.0331617
0.128248
0.36515
0.679821
0.678869
0.366199
0.153775
2.93417e-14
4.50435e-13
6.78845e-12
9.45071e-11
1.20749e-09
1.40565e-08
1.47844e-07
1.39136e-06
1.15841e-05
8.41978e-05
0.000525924
0.00277016
0.0120132
0.0414843
0.108017
0.191295
0.189619
0.104521
0.0451243
2.79072e-14
4.23885e-13
6.31016e-12
8.65351e-11
1.0852e-09
1.23404e-08
1.2598e-07
1.14078e-06
9.02943e-06
6.1356e-05
0.000350047
0.00163165
0.00601811
0.0169919
0.0358025
0.0547781
0.052898
0.0310175
0.0144323
2.75482e-14
4.17257e-13
6.19098e-12
8.45515e-11
1.0548e-09
1.19145e-08
1.20564e-07
1.07885e-06
8.4003e-06
5.57599e-05
0.000307273
0.00135758
0.00459475
0.0112815
0.0193356
0.0243195
0.0223914
0.0142455
0.00725607
2.73963e-14
4.14559e-13
6.144e-12
8.37918e-11
1.04347e-09
1.17595e-08
1.1864e-07
1.0574e-06
8.18826e-06
5.39306e-05
0.000293787
0.00127491
0.00418871
0.00976462
0.0153334
0.0175656
0.0156257
0.0101608
0.0053331
2.7149e-14
4.10543e-13
6.07975e-12
8.28362e-11
1.03034e-09
1.1594e-08
1.16745e-07
1.03789e-06
8.01001e-06
5.25115e-05
0.00028416
0.00122093
0.00394898
0.0089711
0.013538
0.0150248
0.0130875
0.00834325
0.0043423
2.63716e-14
3.98542e-13
5.89777e-12
8.0286e-11
9.9753e-10
1.12096e-08
1.12679e-07
9.99504e-07
7.69098e-06
5.0217e-05
0.0002702
0.0011512
0.0036748
0.00817134
0.0119431
0.0129902
0.011093
0.0068317
0.00347286
2.39087e-14
3.61127e-13
5.34078e-12
7.26485e-11
9.01789e-10
1.01218e-08
1.01593e-07
8.99432e-07
6.9033e-06
4.49173e-05
0.000240494
0.00101714
0.00320937
0.00699962
0.00992833
0.0105955
0.00886075
0.00523573
0.00257488
1.79407e-14
2.70863e-13
4.0038e-12
5.44288e-11
6.75126e-10
7.57081e-09
7.59016e-08
6.70993e-07
5.14011e-06
3.33578e-05
0.000177946
0.000748473
0.00234099
0.00502973
0.00696356
0.0073125
0.00600253
0.00340954
0.00161807
9.00808e-15
1.35902e-13
2.00737e-12
2.72674e-11
3.37933e-10
3.78603e-09
3.79176e-08
3.34803e-07
2.56112e-06
1.65921e-05
8.83112e-05
0.000370296
0.00115272
0.0024575
0.00335993
0.00349789
0.00284197
0.00157816
0.000732704
3.14302e-15
4.7375e-14
6.99155e-13
9.48851e-12
1.17484e-10
1.31495e-09
1.31559e-08
1.16035e-07
8.86552e-07
5.73563e-06
3.04783e-05
0.000127537
0.000395902
0.000840383
0.00114134
0.00118265
0.000955479
0.00052396
0.00024022
8.18684e-16
1.2328e-14
1.81764e-13
2.46443e-12
3.04842e-11
3.40855e-10
3.40669e-09
3.00148e-08
2.29066e-07
1.48016e-06
7.85475e-06
3.28167e-05
0.000101668
0.000215216
0.000291128
0.000300819
0.000242211
0.000131826
5.99788e-05
1.68415e-16
2.53346e-15
3.73168e-14
5.05457e-13
6.2461e-12
6.97693e-11
6.96591e-10
6.13087e-09
4.67382e-08
3.01666e-07
1.5989e-06
6.67115e-06
2.06354e-05
4.35949e-05
5.8818e-05
6.06633e-05
4.87345e-05
2.63953e-05
1.19503e-05
2.84992e-17
4.28265e-16
6.30188e-15
8.52736e-14
1.05269e-12
1.17466e-11
1.17159e-10
1.03007e-09
7.84424e-09
5.0574e-08
2.67748e-07
1.11578e-06
3.44674e-06
7.2703e-06
9.79085e-06
1.00847e-05
8.0887e-06
4.36623e-06
1.97016e-06
4.08714e-18
6.13535e-17
9.01904e-16
1.21917e-14
1.50352e-13
1.67601e-12
1.6699e-11
1.46665e-10
1.11572e-09
7.18563e-09
3.80003e-08
1.58178e-07
4.88038e-07
1.02809e-06
1.38257e-06
1.42266e-06
1.1397e-06
6.13707e-07
2.76263e-07
5.08017e-19
7.61793e-18
1.11871e-16
1.51071e-15
1.86115e-14
2.07254e-13
2.06287e-12
1.8099e-11
1.3754e-10
8.84872e-10
4.67453e-09
1.94368e-08
5.99032e-08
1.26047e-07
1.6932e-07
1.74093e-07
1.39334e-07
7.48912e-08
3.36542e-08
5.56854e-20
8.34134e-19
1.2237e-17
1.65081e-16
2.03167e-15
2.26011e-14
2.24724e-13
1.96963e-12
1.49523e-11
9.60962e-11
5.07118e-10
2.10639e-09
6.48496e-09
1.36314e-08
1.82946e-08
1.87983e-08
1.50334e-08
8.0689e-09
3.62127e-09
5.45445e-21
8.16173e-20
1.19614e-18
1.61199e-17
1.98187e-16
2.20245e-15
2.18767e-14
1.91544e-13
1.45259e-12
9.32597e-12
4.91642e-11
2.04002e-10
6.27431e-10
1.31762e-09
1.76699e-09
1.81467e-09
1.45028e-09
7.7754e-10
3.48616e-10
4.4444e-22
6.64386e-21
9.72786e-20
1.30977e-18
1.60881e-17
1.7862e-16
1.77255e-15
1.55053e-14
1.17475e-13
7.53512e-13
3.96862e-12
1.64522e-11
5.05555e-11
1.06081e-10
1.42172e-10
1.45945e-10
1.16579e-10
6.24489e-11
2.79801e-11
)
;

boundaryField
{
    top
    {
        type            zeroGradient;
    }
    left
    {
        type            fixedValue;
        value           uniform 0;
    }
    bottom
    {
        type            zeroGradient;
    }
    right
    {
        type            zeroGradient;
    }
    frontAndBack
    {
        type            empty;
    }
}


// ************************************************************************* //
