/*--------------------------------*- C++ -*----------------------------------*\
| =========                 |                                                 |
| \\      /  F ield         | OpenFOAM: The Open Source CFD Toolbox           |
|  \\    /   O peration     | Version:  v1806                                 |
|   \\  /    A nd           | Web:      www.OpenFOAM.com                      |
|    \\/     M anipulation  |                                                 |
\*---------------------------------------------------------------------------*/
FoamFile
{
    version     2.0;
    format      ascii;
    class       volScalarField;
    location    "0.09";
    object      T;
}
// * * * * * * * * * * * * * * * * * * * * * * * * * * * * * * * * * * * * * //

dimensions      [0 0 0 1 0 0 0];


internalField   nonuniform List<scalar> 
1881
(
1.33847e-22
-1.84818e-22
-1.37494e-21
-1.48654e-20
-2.08243e-19
-2.81779e-18
-3.48772e-17
-3.8928e-16
-3.87176e-15
-3.38297e-14
-2.55015e-13
-1.61944e-12
-8.38585e-12
-3.37898e-11
-9.86267e-11
-1.85432e-10
-1.85648e-10
-1.00238e-10
-4.21777e-11
-1.65905e-20
-1.73548e-20
-1.80502e-20
-1.51281e-20
2.2564e-20
2.81009e-19
2.87379e-19
-3.42267e-17
-7.0931e-16
-9.38423e-15
-9.45127e-14
-7.49429e-13
-4.63997e-12
-2.16475e-11
-7.10671e-11
-1.44781e-10
-1.45232e-10
-7.24692e-11
-2.67527e-11
-1.73505e-20
-1.49089e-20
-8.18613e-21
5.13837e-20
8.48981e-19
1.11569e-17
1.32635e-16
1.41991e-15
1.35311e-14
1.1314e-13
8.15036e-13
4.93896e-12
2.43737e-11
9.35536e-11
2.6066e-10
4.72538e-10
4.72647e-10
2.64539e-10
1.17201e-10
1.59225e-19
1.73377e-19
1.99588e-19
3.49997e-19
2.32065e-18
2.8944e-17
3.58596e-16
4.03322e-15
4.0446e-14
3.56349e-13
2.70877e-12
1.73463e-11
9.05745e-11
3.67938e-10
1.08205e-09
2.04606e-09
2.04871e-09
1.09991e-09
4.58959e-10
5.17694e-19
5.18561e-19
5.20673e-19
5.73379e-19
1.61921e-18
1.86894e-17
2.62503e-16
3.32738e-15
3.70389e-14
3.57798e-13
2.95268e-12
2.0359e-11
1.13628e-10
4.89829e-10
1.51536e-09
2.97066e-09
2.97702e-09
1.54243e-09
6.08298e-10
-8.34054e-19
-9.9636e-19
-1.24404e-18
-2.00818e-18
-9.58795e-18
-1.02549e-16
-1.16524e-15
-1.20817e-14
-1.1134e-13
-8.97133e-13
-6.20042e-12
-3.58576e-11
-1.67844e-10
-6.07188e-10
-1.58818e-09
-2.72583e-09
-2.72275e-09
-1.60904e-09
-7.64575e-10
-7.65299e-18
-7.98355e-18
-8.50161e-18
-1.06303e-17
-3.61807e-17
-3.73811e-16
-4.4829e-15
-4.95356e-14
-4.88828e-13
-4.24022e-12
-3.17453e-11
-2.00297e-10
-1.03095e-09
-4.1312e-09
-1.20005e-08
-2.2485e-08
-2.25088e-08
-1.21942e-08
-5.15829e-09
-5.26976e-18
-4.02258e-18
-2.45914e-18
-2.50709e-18
-3.14033e-17
-4.7249e-16
-6.19771e-15
-7.25627e-14
-7.54595e-13
-6.87947e-12
-5.40149e-11
-3.56691e-10
-1.91733e-09
-8.00174e-09
-2.41002e-08
-4.63751e-08
-4.64526e-08
-2.45108e-08
-9.95858e-09
7.85607e-17
8.48626e-17
9.31321e-17
1.04739e-16
1.53335e-16
6.25379e-16
5.41857e-15
4.8486e-14
3.76379e-13
2.38577e-12
1.12666e-11
2.94244e-11
-6.17984e-11
-1.0813e-09
-5.37896e-09
-1.32617e-08
-1.33485e-08
-5.52033e-09
-1.2639e-09
2.13825e-16
2.1142e-16
2.08633e-16
2.20432e-16
4.68335e-16
3.83322e-15
4.41966e-14
4.78714e-13
4.63616e-12
3.94618e-11
2.89835e-10
1.79363e-09
9.05393e-09
3.55905e-08
1.01546e-07
1.87667e-07
1.87807e-07
1.03141e-07
4.45096e-08
-4.9741e-16
-5.76428e-16
-6.75983e-16
-7.53443e-16
-3.70677e-16
6.38251e-15
9.19671e-14
1.05286e-12
1.06328e-11
9.42639e-11
7.21082e-10
4.64774e-09
2.44298e-08
9.9899e-08
2.95625e-07
5.61695e-07
5.6246e-07
3.00512e-07
1.24514e-07
-3.44796e-15
-3.57384e-15
-3.72514e-15
-3.86172e-15
-3.82594e-15
-1.04142e-15
4.2492e-14
6.12656e-13
7.07457e-12
7.00318e-11
5.89342e-10
4.13041e-09
2.33744e-08
1.01957e-07
3.18494e-07
6.28585e-07
6.29938e-07
3.24108e-07
1.26396e-07
-8.96306e-16
-2.07886e-16
6.75554e-16
1.55881e-15
8.78408e-16
-2.10734e-14
-2.88823e-13
-3.08928e-12
-2.89584e-11
-2.37491e-10
-1.67527e-09
-9.92419e-09
-4.77913e-08
-1.7871e-07
-4.84914e-07
-8.60096e-07
-8.59965e-07
-4.9202e-07
-2.24534e-07
3.83625e-14
4.12007e-14
4.46799e-14
4.79421e-14
4.60584e-14
-2.50034e-14
-9.31871e-13
-1.09116e-11
-1.08285e-10
-9.40492e-10
-7.04971e-09
-4.45501e-08
-2.29751e-07
-9.22745e-07
-2.6869e-06
-5.04464e-06
-5.05014e-06
-2.7303e-06
-1.15181e-06
8.47248e-14
8.21403e-14
7.8501e-14
7.32863e-14
6.00865e-14
-4.73764e-14
-1.32891e-12
-1.59043e-11
-1.64004e-10
-1.48151e-09
-1.15378e-08
-7.5651e-08
-4.04168e-07
-1.67806e-06
-5.03326e-06
-9.65865e-06
-9.67344e-06
-5.11726e-06
-2.08835e-06
-2.82353e-13
-3.21022e-13
-3.68938e-13
-4.20266e-13
-4.70773e-13
-4.81628e-13
-1.13633e-13
2.92688e-12
1.74775e-11
7.65987e-12
-1.06036e-09
-1.37853e-08
-1.07331e-07
-5.72518e-07
-2.04603e-06
-4.37899e-06
-4.39458e-06
-2.08576e-06
-6.98286e-07
-1.53342e-12
-1.57872e-12
-1.62952e-12
-1.67144e-12
-1.66606e-12
-1.15611e-12
5.17863e-12
7.30121e-11
7.17636e-10
6.08143e-09
4.43898e-08
2.72978e-07
1.36946e-06
5.35147e-06
1.51867e-05
2.7954e-05
2.79732e-05
1.5425e-05
6.69696e-06
3.15071e-13
6.8401e-13
1.14534e-12
1.66742e-12
2.33019e-12
4.19268e-12
2.00322e-11
1.88444e-10
1.84032e-09
1.60903e-08
1.21747e-07
7.76975e-07
4.04695e-06
1.64132e-05
4.82288e-05
9.11783e-05
9.12888e-05
4.9013e-05
2.0467e-05
1.84654e-11
1.97262e-11
2.1218e-11
2.27455e-11
2.43508e-11
2.70541e-11
4.40645e-11
2.26357e-10
2.09552e-09
1.89557e-08
1.49386e-07
9.9154e-07
5.35857e-06
2.24838e-05
6.80616e-05
0.000131479
0.000131691
6.91965e-05
2.79463e-05
3.21402e-11
3.02471e-11
2.77615e-11
2.4688e-11
2.08507e-11
1.49415e-11
-6.38651e-12
-1.67844e-10
-1.48083e-09
-1.08482e-08
-6.62534e-08
-3.24016e-07
-1.18805e-06
-2.88898e-06
-3.37383e-06
8.07023e-07
9.41062e-07
-3.35808e-06
-3.83639e-06
-1.52669e-10
-1.71321e-10
-1.93572e-10
-2.17303e-10
-2.42874e-10
-2.77343e-10
-4.04469e-10
-1.5094e-09
-1.18632e-08
-9.86439e-08
-7.24792e-07
-4.50346e-06
-2.28511e-05
-9.03572e-05
-0.000259394
-0.000481851
-0.000482272
-0.00026352
-0.000112948
-6.70347e-10
-6.84566e-10
-6.98788e-10
-7.09063e-10
-7.15331e-10
-7.31165e-10
-9.29753e-10
-3.20125e-09
-2.57406e-08
-2.20851e-07
-1.67118e-06
-1.06888e-05
-5.58172e-05
-0.000226985
-0.000668713
-0.00126681
-0.00126836
-0.000679559
-0.000282933
4.77189e-10
6.70225e-10
9.02346e-10
1.15864e-09
1.43849e-09
1.72948e-09
1.86443e-09
-6.53889e-11
-2.32417e-08
-2.34966e-07
-1.87239e-06
-1.24301e-05
-6.71118e-05
-0.000281352
-0.000851194
-0.0016438
-0.00164634
-0.000865224
-0.000349622
8.72977e-09
9.27753e-09
9.89447e-09
1.05103e-08
1.11148e-08
1.1714e-08
1.2444e-08
1.46463e-08
2.92202e-08
1.30164e-07
7.20935e-07
3.43401e-06
1.23055e-05
2.85499e-05
2.73725e-05
-2.75878e-05
-2.89693e-05
2.72501e-05
3.83249e-05
1.13795e-08
1.01698e-08
8.65978e-09
6.8661e-09
4.76756e-09
2.4191e-09
7.26132e-10
9.46016e-09
1.19985e-07
1.0736e-06
7.97366e-06
4.96035e-05
0.000251637
0.000994705
0.00285507
0.00530348
0.00530812
0.0029005
0.00124343
-7.95224e-08
-8.83971e-08
-9.85403e-08
-1.09209e-07
-1.20324e-07
-1.31677e-07
-1.41228e-07
-1.27466e-07
1.14919e-07
2.29483e-06
1.84984e-05
0.000118852
0.000618987
0.00250856
0.0073676
0.0139265
0.0139427
0.00748627
0.00312762
-2.86786e-07
-2.89939e-07
-2.92033e-07
-2.91786e-07
-2.88746e-07
-2.8236e-07
-2.69895e-07
-2.24727e-07
1.11294e-07
2.94034e-06
2.42326e-05
0.000158999
0.000845881
0.00349837
0.0104625
0.0200415
0.020069
0.0106324
0.00435241
3.69412e-07
4.69236e-07
5.84432e-07
7.10152e-07
8.46422e-07
9.93288e-07
1.151e-06
1.32458e-06
1.58043e-06
2.61396e-06
1.03416e-05
6.49795e-05
0.000375072
0.00168971
0.0054275
0.0109174
0.0109404
0.00551833
0.00208315
4.06512e-06
4.29991e-06
4.54747e-06
4.78611e-06
5.01137e-06
5.21906e-06
5.39954e-06
5.4877e-06
4.91503e-06
-8.00156e-07
-4.18972e-05
-0.000285271
-0.00144233
-0.0056069
-0.0158037
-0.0289334
-0.0289526
-0.016055
-0.0070279
3.50814e-06
2.7683e-06
1.89818e-06
9.05598e-07
-2.13178e-07
-1.46149e-06
-2.85685e-06
-4.57166e-06
-8.31159e-06
-2.77391e-05
-0.000158038
-0.000944775
-0.00481367
-0.0192707
-0.056072
-0.105296
-0.10541
-0.0569798
-0.0240627
-4.11961e-05
-4.52208e-05
-4.94932e-05
-5.38136e-05
-5.81554e-05
-6.24992e-05
-6.68506e-05
-7.13616e-05
-7.98669e-05
-0.000115768
-0.000346373
-0.00174775
-0.00873388
-0.0352292
-0.103666
-0.196453
-0.196687
-0.105334
-0.0438825
-0.000120076
-0.000119615
-0.000118677
-0.000117027
-0.000114656
-0.000111571
-0.000107799
-9.87491e-05
-8.75875e-05
-0.000101054
-0.000332058
-0.00192967
-0.0101636
-0.0419795
-0.125438
-0.240124
-0.240407
-0.127366
-0.0520867
0.000215197
0.000244064
0.000273957
0.000304133
0.000334588
0.000365313
0.000396467
0.000624105
0.000851403
0.00106677
0.00117955
0.000416647
-0.0038679
-0.0214345
-0.0698646
-0.139245
-0.139448
-0.0709042
-0.0266662
0.0016323
0.00166448
0.00169958
0.00173474
0.0017699
0.00180506
0.00184043
0.00206274
0.00228945
0.00255338
0.00307361
0.00486099
0.0131431
0.0425376
0.11363
0.204109
0.204259
0.115496
0.0528114
0.00303583
0.00306434
0.00309777
0.00313134
0.00316487
0.00319836
0.00323212
0.0034438
0.00367044
0.00402366
0.00527854
0.0116759
0.0429075
0.158946
0.452799
0.844043
0.844899
0.460045
0.197573
0.0043653
0.00439005
0.00442142
0.0044531
0.00448476
0.00451639
0.00454841
0.00474975
0.00498053
0.00546086
0.00773597
0.0205456
0.0838847
0.321855
0.93099
1.75018
1.75207
0.945814
0.400171
0.00561845
0.00563965
0.00566889
0.00569867
0.00572843
0.00575818
0.00578846
0.00597965
0.00621666
0.00684303
0.0102841
0.030443
0.130739
0.509654
1.48474
2.80255
2.80565
1.50832
0.633664
0.00679472
0.00681254
0.00683958
0.00686738
0.00689519
0.006923
0.00695147
0.00713234
0.00737473
0.00814063
0.0127036
0.0399624
0.176089
0.692126
2.02444
3.83047
3.83478
2.05651
0.860434
0.00789306
0.0079077
0.00793249
0.00795833
0.00798421
0.00801011
0.0080368
0.00820712
0.00845163
0.00932856
0.0148023
0.0478562
0.213321
0.841987
2.46859
4.67795
4.68325
2.50762
1.04656
0.00891712
0.00892931
0.00895247
0.00897699
0.00900164
0.00902637
0.00905202
0.00921211
0.00945503
0.0104041
0.0164924
0.0534883
0.238968
0.944699
2.77326
5.26012
5.2661
2.81703
1.17401
0.00988628
0.00989731
0.0099199
0.00994409
0.00996839
0.00999272
0.0100179
0.0101678
0.0104054
0.0113893
0.0178076
0.0569537
0.253386
1.00142
2.9412
5.58133
5.58768
2.98756
1.24425
0.0107946
0.0108008
0.0108185
0.0108378
0.0108568
0.0108755
0.0108948
0.0110261
0.0112439
0.0122204
0.0187445
0.0587213
0.25948
1.02436
3.00863
5.71032
5.7168
3.05596
1.27246
0.0114229
0.0114128
0.0114143
0.0114177
0.0114212
0.0114246
0.0114288
0.011442
0.0115444
0.0124105
0.0188466
0.0589661
0.260491
1.02841
3.02083
5.73396
5.74046
3.06833
1.27744
0.0114564
0.0114433
0.0114407
0.0114406
0.0114407
0.0114409
0.0114419
0.0114521
0.0115518
0.012414
0.0188329
0.0588526
0.259879
1.02591
3.01345
5.71995
5.72644
3.06082
1.27432
0.0114573
0.0114447
0.0114417
0.0114413
0.0114412
0.0114413
0.0114422
0.0114522
0.0115515
0.012411
0.0188102
0.0587055
0.259101
1.0227
3.00391
5.70173
5.70819
3.05113
1.27033
0.0114555
0.0114435
0.0114403
0.0114397
0.0114396
0.0114396
0.0114404
0.0114504
0.0115494
0.012407
0.0187922
0.0585986
0.258538
1.02037
2.99692
5.68831
5.69475
3.04401
1.26742
0.0114513
0.0114399
0.0114365
0.0114358
0.0114356
0.0114355
0.0114362
0.0114461
0.011545
0.0124021
0.0187826
0.0585567
0.258318
1.01942
2.99391
5.68236
5.68878
3.04095
1.26623
0.0114455
0.0114347
0.0114311
0.0114303
0.0114301
0.01143
0.0114308
0.0114407
0.0115399
0.0123989
0.0187939
0.0586539
0.258825
1.02139
2.99947
5.69251
5.69894
3.04661
1.26872
0.0114421
0.011432
0.0114284
0.0114277
0.0114277
0.0114278
0.0114287
0.011439
0.0115391
0.0124048
0.0188476
0.0590027
0.260639
1.02872
3.02086
5.73271
5.7392
3.06838
1.27792
0.0114495
0.0114401
0.0114367
0.0114364
0.0114368
0.0114374
0.0114388
0.0114496
0.0115515
0.0124289
0.0189563
0.059642
0.263958
1.04227
3.06098
5.8089
5.81551
3.10923
1.29491
0.011477
0.0114685
0.0114656
0.0114658
0.0114669
0.0114681
0.0114702
0.0114818
0.0115857
0.0124758
0.0190971
0.0603811
0.267776
1.05806
3.10834
5.89979
5.90655
3.15744
1.31466
0.0115283
0.0115204
0.011518
0.0115186
0.0115201
0.0115219
0.0115245
0.0115366
0.0116413
0.0125354
0.0191885
0.0606969
0.269356
1.06497
3.13028
5.94365
5.95051
3.17978
1.32321
0.0115901
0.0115826
0.0115799
0.0115804
0.0115816
0.0115831
0.0115855
0.0115971
0.0116992
0.0125742
0.0190917
0.0597885
0.264545
1.04598
3.07631
5.84438
5.85112
3.12483
1.29927
0.0116247
0.0116168
0.0116128
0.0116116
0.0116113
0.0116112
0.0116118
0.0116211
0.0117151
0.0125338
0.0186448
0.0568365
0.249151
0.983817
2.89473
5.50293
5.5092
2.93999
1.22123
0.0115701
0.0115608
0.0115539
0.0115494
0.0115457
0.0115421
0.0115391
0.0115437
0.0116231
0.0123415
0.0177252
0.0513893
0.220985
0.869371
2.55772
4.86513
4.87045
2.59695
1.07774
0.0113534
0.0113417
0.0113304
0.011321
0.0113121
0.0113033
0.011295
0.0112928
0.0113518
0.0119321
0.0163102
0.0436786
0.181493
0.708462
2.08181
3.96123
3.96518
2.11253
0.876173
0.010913
0.0108984
0.010882
0.0108665
0.0108515
0.0108365
0.0108218
0.0108117
0.0108474
0.0112707
0.0145016
0.034656
0.135893
0.522517
1.53023
2.91099
2.91333
1.55112
0.643414
0.0102216
0.0102042
0.0101826
0.0101613
0.0101401
0.010119
0.010098
0.0100802
0.0100936
0.0103664
0.0124938
0.0256821
0.0914654
0.34156
0.992348
1.88482
1.88557
1.00369
0.417054
0.0092967
0.00927704
0.00925142
0.00922524
0.00919913
0.00917301
0.00914701
0.00912305
0.00911842
0.00926957
0.0105007
0.0180089
0.0547776
0.192757
0.549517
1.03862
1.03805
0.552997
0.231053
0.0081943
0.00817349
0.0081454
0.00811617
0.00808689
0.00805761
0.00802843
0.00800055
0.00798413
0.00805375
0.0086797
0.0123341
0.0293367
0.0906589
0.245727
0.457371
0.455881
0.243809
0.103555
0.00699027
0.00696941
0.00694055
0.00691016
0.00687963
0.0068491
0.00681869
0.0067892
0.00676699
0.00679339
0.00709326
0.00865662
0.0148787
0.0342052
0.0783613
0.136964
0.134958
0.0734606
0.0331944
0.0057595
0.00573951
0.00571134
0.00568141
0.00565126
0.00562115
0.00559115
0.00556197
0.00553844
0.00554901
0.00572256
0.00646652
0.00843792
0.0111182
0.0110993
0.00850106
0.0062962
0.00503411
0.00463765
0.00456402
0.00454559
0.00451924
0.00449103
0.00446258
0.00443416
0.00440588
0.0043784
0.00435622
0.00436501
0.00451467
0.00510316
0.00628814
0.00593278
-0.00213191
-0.0159669
-0.0181584
-0.00827079
-0.00136782
0.0034524
0.00343607
0.00341242
0.00338696
0.00336125
0.00333559
0.00331008
0.00328536
0.0032658
0.00327667
0.00343001
0.00405823
0.00554932
0.00665354
0.00279732
-0.005135
-0.00717246
-0.0028598
0.000289458
0.00246473
0.00245092
0.00243075
0.00240892
0.00238687
0.00236488
0.00234306
0.00232197
0.00230559
0.00231733
0.00246448
0.003092
0.00478314
0.00721161
0.00762843
0.0058969
0.00411909
0.00274297
0.00208449
0.00163501
0.00162406
0.00160794
0.00159044
0.00157276
0.00155516
0.00153773
0.00152092
0.001508
0.00151837
0.00164224
0.0021793
0.00369515
0.00622038
0.0080117
0.00861961
0.00718308
0.00408218
0.00223976
0.000986955
0.000978967
0.000967147
0.000954286
0.000941301
0.000928399
0.00091565
0.00090339
0.000893996
0.000901647
0.000992535
0.00138748
0.00250724
0.00439219
0.00578897
0.00635414
0.00530225
0.00291108
0.00148681
0.000526203
0.000520974
0.000513208
0.000504751
0.000496224
0.000487774
0.000479449
0.000471461
0.000465327
0.000470097
0.000527949
0.000778766
0.00148251
0.00262574
0.0033281
0.00341748
0.00273841
0.00146627
0.000728058
0.000235751
0.000232778
0.000228354
0.000223536
0.000218691
0.000213906
0.000209209
0.000204714
0.000201242
0.00020369
0.000234875
0.000370097
0.0007461
0.00133608
0.00162173
0.00153275
0.00116091
0.000600139
0.000286062
7.93967e-05
7.8006e-05
7.59347e-05
7.36825e-05
7.14265e-05
6.92097e-05
6.70447e-05
6.49804e-05
6.33672e-05
6.43058e-05
7.76109e-05
0.000135737
0.000297502
0.000549493
0.00066231
0.000608269
0.000447504
0.000220053
9.42926e-05
1.23243e-05
1.18516e-05
1.11483e-05
1.0387e-05
9.63052e-06
8.89428e-06
8.1823e-06
7.50763e-06
6.96564e-06
7.13403e-06
1.07398e-05
2.69223e-05
7.27389e-05
0.000146463
0.000186673
0.000183755
0.000139196
6.39785e-05
2.12042e-05
-6.55548e-06
-6.61753e-06
-6.70858e-06
-6.80444e-06
-6.8954e-06
-6.97898e-06
-7.05497e-06
-7.12427e-06
-7.19212e-06
-7.28536e-06
-7.51151e-06
-8.14816e-06
-9.38993e-06
-9.86289e-06
-5.69049e-06
2.3065e-06
4.10323e-06
-8.33359e-07
-4.25164e-06
-6.33283e-06
-6.28132e-06
-6.20373e-06
-6.11779e-06
-6.02945e-06
-5.94014e-06
-5.85053e-06
-5.7639e-06
-5.70323e-06
-5.8049e-06
-6.70306e-06
-1.04872e-05
-2.09487e-05
-3.73634e-05
-4.5446e-05
-4.317e-05
-3.28722e-05
-1.71743e-05
-8.33242e-06
-2.44617e-06
-2.40266e-06
-2.33761e-06
-2.26657e-06
-2.19507e-06
-2.12447e-06
-2.05524e-06
-1.98916e-06
-1.93906e-06
-1.98201e-06
-2.48046e-06
-4.64769e-06
-1.07641e-05
-2.07457e-05
-2.68423e-05
-2.7589e-05
-2.17196e-05
-1.07132e-05
-4.34525e-06
-1.57933e-07
-1.43214e-07
-1.21367e-07
-9.77796e-08
-7.44416e-08
-5.18473e-08
-3.01175e-08
-9.59884e-09
7.14872e-09
4.43597e-09
-9.27263e-08
-5.39863e-07
-1.83097e-06
-3.98979e-06
-5.41494e-06
-5.78003e-06
-4.55601e-06
-2.04069e-06
-5.79186e-07
3.57283e-07
3.56755e-07
3.55872e-07
3.5475e-07
3.534e-07
3.51823e-07
3.50046e-07
3.48241e-07
3.47594e-07
3.55104e-07
4.03222e-07
5.99119e-07
1.14163e-06
2.02419e-06
2.58945e-06
2.69593e-06
2.17848e-06
1.1736e-06
5.84925e-07
1.85791e-07
1.82859e-07
1.78462e-07
1.73636e-07
1.6875e-07
1.63896e-07
1.59109e-07
1.54532e-07
1.51191e-07
1.55244e-07
1.95661e-07
3.69451e-07
8.58892e-07
1.6563e-06
2.13905e-06
2.19203e-06
1.72229e-06
8.47898e-07
3.43194e-07
1.26144e-08
1.14769e-08
9.78962e-09
7.96763e-09
6.16423e-09
4.41758e-09
2.73718e-09
1.15017e-09
-1.43886e-10
7.69117e-11
7.63838e-09
4.22259e-08
1.40625e-07
2.97092e-07
3.71302e-07
3.46605e-07
2.49723e-07
1.0351e-07
2.28019e-08
-2.71866e-08
-2.70976e-08
-2.69563e-08
-2.6789e-08
-2.66033e-08
-2.64011e-08
-2.61853e-08
-2.59721e-08
-2.5876e-08
-2.65749e-08
-3.12309e-08
-5.03441e-08
-1.03506e-07
-1.90082e-07
-2.44728e-07
-2.54104e-07
-2.03376e-07
-1.05699e-07
-4.88023e-08
-1.08016e-08
-1.05747e-08
-1.02353e-08
-9.8639e-09
-9.48971e-09
-9.12001e-09
-8.75736e-09
-8.41199e-09
-8.15682e-09
-8.43139e-09
-1.13083e-08
-2.37226e-08
-5.8537e-08
-1.13957e-07
-1.42308e-07
-1.36907e-07
-1.02897e-07
-4.8621e-08
-1.81126e-08
1.50101e-09
1.55201e-09
1.62679e-09
1.70629e-09
1.78332e-09
1.85609e-09
1.92435e-09
1.98812e-09
2.04701e-09
2.09666e-09
2.10968e-09
1.9743e-09
1.46262e-09
7.38797e-10
1.27958e-09
2.87992e-09
3.48664e-09
3.05866e-09
2.62194e-09
2.1373e-09
2.11204e-09
2.07386e-09
2.03148e-09
1.98797e-09
1.94413e-09
1.90033e-09
1.85837e-09
1.83086e-09
1.89352e-09
2.4018e-09
4.53983e-09
1.04899e-08
1.99133e-08
2.46769e-08
2.36402e-08
1.78259e-08
8.67688e-09
3.53269e-09
1.92514e-10
1.78724e-10
1.58279e-10
1.36176e-10
1.14258e-10
9.2985e-11
7.24778e-11
5.30984e-11
3.74925e-11
4.18825e-11
1.43858e-10
6.06825e-10
1.92821e-09
4.05322e-09
5.13826e-09
4.93865e-09
3.64933e-09
1.57344e-09
4.12983e-10
-3.10518e-10
-3.08812e-10
-3.06157e-10
-3.03102e-10
-2.99826e-10
-2.96379e-10
-2.92803e-10
-2.8934e-10
-2.87698e-10
-2.98053e-10
-3.68007e-10
-6.55412e-10
-1.4489e-09
-2.69611e-09
-3.30646e-09
-3.13141e-09
-2.35447e-09
-1.17018e-09
-5.0618e-10
-7.16267e-11
-6.91816e-11
-6.55414e-11
-6.15814e-11
-5.76215e-11
-5.37422e-11
-4.99689e-11
-4.63939e-11
-4.36835e-11
-4.58916e-11
-7.23095e-11
-1.88196e-10
-5.16948e-10
-1.04961e-09
-1.34557e-09
-1.33677e-09
-1.01909e-09
-4.69016e-10
-1.56811e-10
4.1437e-11
4.14152e-11
4.13641e-11
4.12814e-11
4.11633e-11
4.10092e-11
4.08237e-11
4.06379e-11
4.06689e-11
4.22074e-11
5.12697e-11
8.77396e-11
1.87791e-10
3.44411e-10
4.20352e-10
3.96845e-10
2.98906e-10
1.51281e-10
6.84518e-11
1.34936e-11
1.31123e-11
1.25436e-11
1.19232e-11
1.13006e-11
1.06882e-11
1.00902e-11
9.52321e-12
9.10619e-12
9.56239e-12
1.43334e-11
3.5073e-11
9.39194e-11
1.89911e-10
2.45838e-10
2.48843e-10
1.92314e-10
8.99337e-11
3.14221e-11
-6.05422e-12
-6.06185e-12
-6.07031e-12
-6.0753e-12
-6.07483e-12
-6.06849e-12
-6.05687e-12
-6.04479e-12
-6.06578e-12
-6.31928e-12
-7.73649e-12
-1.34036e-11
-2.89867e-11
-5.36714e-11
-6.67173e-11
-6.49235e-11
-4.98177e-11
-2.52334e-11
-1.12642e-11
-2.063e-12
-2.0044e-12
-1.91706e-12
-1.82178e-12
-1.72615e-12
-1.63208e-12
-1.54025e-12
-1.45329e-12
-1.39029e-12
-1.46739e-12
-2.23809e-12
-5.57982e-12
-1.50703e-11
-3.05933e-11
-3.97549e-11
-4.04631e-11
-3.13665e-11
-1.4661e-11
-5.10419e-12
9.77289e-13
9.76797e-13
9.75627e-13
9.73713e-13
9.70967e-13
9.67383e-13
9.6308e-13
9.58917e-13
9.6096e-13
1.00545e-12
1.2624e-12
2.299e-12
5.17261e-12
9.80343e-12
1.24964e-11
1.2604e-11
9.84941e-12
4.92928e-12
2.10103e-12
2.5575e-13
2.47216e-13
2.34529e-13
2.20729e-13
2.06926e-13
1.934e-13
1.80244e-13
1.6783e-13
1.58838e-13
1.6964e-13
2.78359e-13
7.5022e-13
2.08959e-12
4.26852e-12
5.50194e-12
5.51095e-12
4.22198e-12
1.94326e-12
6.49126e-13
-1.50935e-13
-1.50119e-13
-1.48847e-13
-1.47374e-13
-1.45786e-13
-1.44107e-13
-1.4236e-13
-1.4069e-13
-1.40119e-13
-1.46788e-13
-1.89675e-13
-3.66069e-13
-8.59105e-13
-1.65968e-12
-2.13499e-12
-2.17309e-12
-1.70127e-12
-8.3706e-13
-3.40168e-13
-7.81324e-15
-6.81439e-15
-5.33961e-15
-3.74886e-15
-2.17498e-15
-6.51127e-16
8.14618e-16
2.20155e-15
3.35678e-15
3.33e-15
-2.48144e-15
-2.98892e-14
-1.09053e-13
-2.36241e-13
-2.96264e-13
-2.76505e-13
-1.98668e-13
-8.01838e-14
-1.52893e-14
2.5367e-14
2.50211e-14
2.45e-14
2.39228e-14
2.3332e-14
2.27385e-14
2.21481e-14
2.15901e-14
2.12745e-14
2.24744e-14
3.12289e-14
6.79088e-14
1.70874e-13
3.36947e-13
4.28623e-13
4.2477e-13
3.25478e-13
1.54857e-13
5.80636e-14
-4.55986e-15
-4.65041e-15
-4.7819e-15
-4.92055e-15
-5.05356e-15
-5.17783e-15
-5.29335e-15
-5.40383e-15
-5.5353e-15
-5.84091e-15
-7.02929e-15
-1.14338e-14
-2.33594e-14
-4.25955e-14
-5.48198e-14
-5.69903e-14
-4.57458e-14
-2.40915e-14
-1.14242e-14
-3.75018e-15
-3.67358e-15
-3.55922e-15
-3.43397e-15
-3.30754e-15
-3.18237e-15
-3.05953e-15
-2.9441e-15
-2.87281e-15
-3.06929e-15
-4.5982e-15
-1.10603e-14
-2.92371e-14
-5.84281e-14
-7.37846e-14
-7.18145e-14
-5.42143e-14
-2.51923e-14
-8.87312e-15
1.11268e-15
1.11563e-15
1.11952e-15
1.12303e-15
1.12559e-15
1.12709e-15
1.12766e-15
1.12844e-15
1.1376e-15
1.20408e-15
1.55782e-15
2.96567e-15
6.84601e-15
1.30061e-14
1.62327e-14
1.57549e-14
1.20015e-14
5.90809e-15
2.46217e-15
2.70235e-16
2.61819e-16
2.49331e-16
2.35753e-16
2.22173e-16
2.08861e-16
1.95916e-16
1.83767e-16
1.75553e-16
1.90471e-16
3.204e-16
8.77909e-16
2.45753e-15
5.01706e-15
6.41537e-15
6.3395e-15
4.81682e-15
2.20711e-15
7.34198e-16
-9.26569e-17
-9.16682e-17
-9.01786e-17
-8.85227e-17
-8.68189e-17
-8.50978e-17
-8.33795e-17
-8.17796e-17
-8.11343e-17
-8.65104e-17
-1.21942e-16
-2.68386e-16
-6.77314e-16
-1.33003e-15
-1.66596e-15
-1.60761e-15
-1.21114e-15
-5.72235e-16
-2.13478e-16
)
;

boundaryField
{
    top
    {
        type            zeroGradient;
    }
    left
    {
        type            fixedValue;
        value           uniform 0;
    }
    bottom
    {
        type            zeroGradient;
    }
    right
    {
        type            zeroGradient;
    }
    frontAndBack
    {
        type            empty;
    }
}


// ************************************************************************* //
