/*--------------------------------*- C++ -*----------------------------------*\
| =========                 |                                                 |
| \\      /  F ield         | OpenFOAM: The Open Source CFD Toolbox           |
|  \\    /   O peration     | Version:  v1806                                 |
|   \\  /    A nd           | Web:      www.OpenFOAM.com                      |
|    \\/     M anipulation  |                                                 |
\*---------------------------------------------------------------------------*/
FoamFile
{
    version     2.0;
    format      ascii;
    class       volScalarField;
    location    "0.025";
    object      T;
}
// * * * * * * * * * * * * * * * * * * * * * * * * * * * * * * * * * * * * * //

dimensions      [0 0 0 1 0 0 0];


internalField   nonuniform List<scalar> 
1881
(
6.16531e-134
3.13189e-132
1.5169e-130
6.84518e-129
2.86116e-127
1.10013e-125
3.85955e-124
1.22332e-122
3.46073e-121
8.60515e-120
1.8435e-118
3.31205e-117
4.80155e-116
5.29324e-115
4.00318e-114
1.66477e-113
1.65233e-113
3.84756e-114
5.35172e-115
1.14726e-131
5.84641e-130
2.8405e-128
1.28582e-126
5.3914e-125
2.07954e-123
7.31867e-122
2.32706e-120
6.60407e-119
1.64733e-117
3.54035e-116
6.38084e-115
9.27979e-114
1.02622e-112
7.78497e-112
3.24656e-111
3.22303e-111
7.49096e-112
1.03951e-112
2.1163e-129
1.08187e-127
5.27272e-126
2.3943e-124
1.00706e-122
3.89661e-121
1.37568e-119
4.38798e-118
1.24923e-116
3.12598e-115
6.73951e-114
1.21853e-112
1.77775e-111
1.97213e-110
1.50066e-109
6.27572e-109
6.23163e-109
1.44562e-109
2.00138e-110
3.84851e-127
1.97364e-125
9.649e-124
4.39527e-122
1.85451e-120
7.19826e-119
2.54936e-117
8.15738e-116
2.32973e-114
5.84831e-113
1.26489e-111
2.29426e-110
3.35779e-109
3.73668e-108
2.85211e-107
1.1961e-106
1.18796e-106
2.75061e-107
3.79907e-108
6.89726e-125
3.54841e-123
1.74024e-121
7.95201e-120
3.3658e-118
1.31057e-116
4.65626e-115
1.49464e-113
4.28227e-112
1.07841e-110
2.33987e-109
4.25763e-108
6.25115e-107
6.97852e-106
5.34296e-105
2.24703e-104
2.23223e-104
5.15858e-105
7.10792e-106
1.21786e-122
6.28548e-121
3.09228e-119
1.41748e-117
6.01867e-116
2.35097e-114
8.37927e-113
2.69829e-111
7.75555e-110
1.95934e-108
4.26491e-107
7.78531e-106
1.14671e-104
1.2842e-103
9.86269e-103
4.15959e-102
4.13309e-102
9.53286e-103
1.31037e-103
2.11794e-120
1.09659e-118
5.41195e-117
2.48865e-115
1.06005e-113
4.15388e-112
1.48524e-110
4.79808e-109
1.38351e-107
3.5065e-106
7.65718e-105
1.40226e-103
2.07204e-102
2.32786e-101
1.79336e-100
7.58501e-100
7.5383e-100
1.73528e-100
2.37952e-101
3.62644e-118
1.88367e-116
9.32587e-115
4.30207e-113
1.83832e-111
7.2266e-110
2.59219e-108
8.40097e-107
2.43019e-105
6.17915e-104
1.3537e-102
2.48704e-101
3.68679e-100
4.15519e-99
3.21111e-98
1.36201e-97
1.35391e-97
3.11048e-98
4.25486e-99
6.11154e-116
3.18474e-114
1.58174e-112
7.3199e-111
3.13787e-109
1.23748e-107
4.45311e-106
1.44785e-104
4.20178e-103
1.07183e-101
2.35572e-100
4.34198e-99
6.45734e-98
7.30106e-97
5.65987e-96
2.40755e-95
2.39373e-95
5.48838e-96
7.48915e-97
1.01336e-113
5.29774e-112
2.63958e-110
1.22544e-108
5.27001e-107
2.08501e-105
7.52718e-104
2.45524e-102
7.1484e-101
1.8294e-99
4.03381e-98
7.45911e-97
1.11291e-95
1.26236e-94
9.81675e-94
4.18777e-93
4.16459e-93
9.52937e-94
1.2971e-94
1.65258e-111
8.66753e-110
4.33238e-108
2.01778e-106
8.70541e-105
3.45529e-103
1.25144e-101
4.09524e-100
1.1962e-98
3.07124e-97
6.79414e-96
1.26043e-94
1.88669e-93
2.14697e-92
1.67485e-91
7.16544e-91
7.1272e-91
1.62752e-91
2.20979e-92
2.64957e-109
1.39418e-107
6.99102e-106
3.26651e-104
1.41383e-102
5.62986e-101
2.04565e-99
6.71598e-98
1.9681e-96
5.06961e-95
1.12516e-93
2.09419e-92
3.14493e-91
3.59038e-90
2.80971e-89
1.20555e-88
1.19936e-88
2.73314e-89
3.70159e-90
4.17469e-107
2.20385e-105
1.10867e-103
5.19689e-102
2.25664e-100
9.01508e-99
3.28636e-97
1.08245e-95
3.18247e-94
8.22457e-93
1.83136e-91
3.4198e-90
5.15247e-89
5.90136e-88
4.63287e-87
1.99358e-86
1.98373e-86
4.51121e-87
6.09417e-88
6.46139e-105
3.4222e-103
1.72712e-101
8.12215e-100
3.53833e-98
1.41814e-96
5.18656e-95
1.71393e-93
5.0556e-92
1.31083e-90
2.92843e-89
5.48642e-88
8.29331e-87
9.52966e-86
7.50512e-85
3.23897e-84
3.22358e-84
7.31539e-85
9.85699e-86
9.81951e-103
5.21787e-101
2.6419e-99
1.24645e-97
5.4477e-96
2.19053e-94
8.03772e-93
2.66484e-91
7.8864e-90
2.05156e-88
4.59838e-87
8.64351e-86
1.31086e-84
1.51121e-83
1.19397e-82
5.16786e-82
5.1443e-82
1.16494e-82
1.56562e-83
1.46458e-100
7.80813e-99
3.96625e-97
1.87737e-95
8.23204e-94
3.32098e-92
1.22257e-90
4.0667e-89
1.20749e-87
3.15154e-86
7.0873e-85
1.33661e-83
2.03379e-82
2.35232e-81
1.86446e-80
8.0937e-80
8.0583e-80
1.82092e-80
2.44084e-81
2.14284e-98
1.14619e-96
5.84121e-95
2.7739e-93
1.22031e-91
4.9392e-90
1.8243e-88
6.08832e-87
1.81374e-85
4.74958e-84
1.07166e-82
2.02778e-81
3.09571e-80
3.59235e-79
2.85649e-78
1.24367e-77
1.23846e-77
2.79247e-78
3.73331e-79
3.07395e-96
1.64969e-94
8.43465e-93
4.01863e-91
1.77372e-89
7.20281e-88
2.66917e-86
8.93751e-85
2.67138e-83
7.01878e-82
1.58894e-80
3.01662e-79
4.62066e-78
5.37967e-77
4.29151e-76
1.87399e-75
1.86648e-75
4.19933e-76
5.59926e-77
4.32121e-94
2.32677e-92
1.19355e-90
5.70532e-89
2.5265e-87
1.02937e-85
3.82724e-84
1.28579e-82
3.856e-81
1.01651e-79
2.30893e-78
4.39819e-77
6.75938e-76
7.8958e-75
6.31912e-74
2.7676e-73
2.75699e-73
6.18918e-74
8.23039e-75
5.9494e-92
3.21417e-90
1.65419e-88
7.93335e-87
3.52478e-85
1.44087e-83
5.37507e-82
1.81183e-80
5.45175e-79
1.442e-77
3.2864e-76
6.28118e-75
9.68562e-74
1.13517e-72
9.11446e-72
4.0038e-71
3.98915e-71
8.93528e-72
1.18501e-72
8.01767e-90
4.34606e-88
2.24412e-86
1.07982e-84
4.81361e-83
1.97428e-81
7.38954e-80
2.49921e-78
7.54534e-77
2.00248e-75
4.57916e-74
8.78149e-73
1.35867e-71
1.59769e-70
1.28701e-69
5.67049e-69
5.6507e-69
1.26285e-69
1.67024e-70
1.05697e-87
5.74868e-86
2.9782e-84
1.43782e-82
6.43084e-81
2.64641e-79
9.93846e-78
3.37259e-76
1.02165e-74
2.72054e-73
6.24222e-72
1.20113e-70
1.86465e-69
2.20003e-68
1.77803e-67
7.85747e-67
7.83136e-67
1.74621e-67
2.30319e-68
1.36219e-85
7.43368e-84
3.86396e-82
1.87167e-80
8.39931e-79
3.46807e-77
1.3068e-75
4.44956e-74
1.35245e-72
3.61365e-71
8.31957e-70
1.60628e-68
2.50207e-67
2.96203e-66
2.40174e-65
1.06458e-64
1.06122e-64
2.36083e-65
3.10522e-66
1.71504e-83
9.39092e-82
4.89761e-80
2.3803e-78
1.07177e-76
4.44024e-75
1.67878e-73
5.73547e-72
1.74922e-70
4.68968e-69
1.08337e-67
2.09881e-66
3.28038e-65
3.89654e-64
3.1699e-63
1.40933e-62
1.4051e-62
3.11859e-63
4.09043e-64
2.10797e-81
1.15816e-79
6.06034e-78
2.9553e-76
1.33516e-74
5.55011e-73
2.10551e-71
7.21782e-70
2.20881e-68
5.94207e-67
1.37737e-65
2.67751e-64
4.19915e-63
5.00477e-62
4.08496e-61
1.82169e-60
1.81651e-60
4.02223e-61
5.26078e-62
2.52741e-79
1.39334e-77
7.31545e-76
3.57937e-74
1.62257e-72
6.76772e-71
2.57616e-69
8.86135e-68
2.72104e-66
7.3451e-65
1.70844e-63
3.33247e-62
5.24422e-61
6.27157e-60
5.13597e-59
2.29738e-58
2.2912e-58
5.06129e-59
6.60093e-60
2.95366e-77
1.63389e-75
8.60731e-74
4.22571e-72
1.92206e-70
8.04416e-69
3.07249e-67
1.06047e-65
3.26755e-64
8.85066e-63
2.06571e-61
4.04323e-60
6.38458e-59
7.66139e-58
6.29507e-57
2.82449e-56
2.81732e-56
6.20856e-57
8.07392e-58
3.3616e-75
1.86592e-73
9.86293e-72
4.85857e-70
2.21744e-68
9.31206e-67
3.56894e-65
1.23606e-63
3.82166e-62
1.03873e-60
2.43271e-59
4.77803e-58
7.5709e-57
9.11605e-56
7.5154e-55
3.38241e-54
3.37431e-54
7.41799e-55
9.61875e-56
3.72255e-73
2.07338e-71
1.09967e-69
5.43552e-68
2.48923e-66
1.04893e-64
4.03392e-63
1.40191e-61
4.34941e-60
1.18626e-58
2.78787e-57
5.49457e-56
8.7364e-55
1.05556e-53
8.73141e-53
3.94183e-52
3.93295e-52
8.62492e-53
1.1151e-53
4.00705e-71
2.23954e-69
1.19184e-67
5.91125e-66
2.71637e-64
1.14857e-62
4.43237e-61
1.54571e-59
4.81216e-58
1.31703e-56
3.10596e-55
6.14278e-54
9.80097e-53
1.18826e-51
9.86232e-51
4.4662e-50
4.45675e-50
9.74942e-51
1.25676e-51
4.18845e-69
2.34903e-67
1.25438e-65
6.24275e-64
2.87857e-62
1.22135e-60
4.72953e-59
1.65506e-57
5.17052e-56
1.42004e-54
3.36058e-53
6.66955e-52
1.06785e-50
1.29914e-49
1.08191e-48
4.91473e-48
4.905e-48
1.07031e-48
1.37558e-49
4.24667e-67
2.38995e-65
1.28061e-63
6.39521e-62
2.95904e-60
1.25984e-58
4.89552e-57
1.71911e-55
5.38935e-54
1.48531e-52
3.52737e-51
7.0251e-50
1.12871e-48
1.37795e-47
1.15144e-46
5.24695e-46
5.23725e-46
1.13992e-46
1.46063e-47
4.17158e-65
2.35587e-63
1.2667e-61
6.34754e-60
2.94715e-58
1.25914e-56
4.90982e-55
1.73015e-53
5.44298e-52
1.50536e-50
3.58754e-49
7.17006e-48
1.15605e-46
1.41624e-45
1.18748e-44
5.42812e-44
5.41878e-44
1.17642e-44
1.50281e-45
3.96516e-63
2.24713e-61
1.2124e-59
6.0965e-58
2.84043e-56
1.21777e-54
4.76511e-53
1.68504e-51
5.31969e-50
1.47644e-48
3.53104e-47
7.08205e-46
1.14588e-44
1.40869e-43
1.1852e-42
5.43477e-42
5.42608e-42
1.17496e-42
1.49634e-43
3.64201e-61
2.07123e-59
1.12137e-57
5.65834e-56
2.64548e-54
1.13816e-52
4.4692e-51
1.58596e-49
5.02456e-48
1.39946e-46
3.35877e-45
6.76039e-44
1.0977e-42
1.3542e-41
1.14327e-40
5.2591e-40
5.25131e-40
1.13414e-40
1.43989e-41
3.22778e-59
1.84212e-57
1.00079e-55
5.06754e-54
2.37754e-52
1.02647e-50
4.04484e-49
1.44044e-47
4.57967e-46
1.28007e-44
3.08315e-43
6.22769e-42
1.01479e-40
1.25633e-39
1.0643e-38
4.9114e-38
4.90469e-38
1.05648e-38
1.3371e-39
2.75588e-57
1.57836e-55
8.60486e-54
4.37235e-52
2.05858e-50
8.91896e-49
3.52695e-47
1.26046e-45
4.02168e-44
1.12811e-42
2.72682e-41
5.52758e-40
9.0392e-39
1.12303e-37
9.5467e-37
4.41952e-36
4.41397e-36
9.48237e-37
1.19631e-37
2.2629e-55
1.30061e-53
7.11546e-52
3.62824e-50
1.71426e-48
7.45341e-47
2.95785e-45
1.06083e-43
3.3968e-42
9.56231e-41
2.31964e-39
4.71901e-38
7.74452e-37
9.65593e-36
8.23691e-35
3.82537e-34
3.82098e-34
8.18629e-35
1.0295e-35
1.78363e-53
1.0288e-51
5.64816e-50
2.8902e-48
1.37038e-46
5.97938e-45
2.38133e-43
8.5711e-42
2.7543e-40
7.78139e-39
1.8944e-37
3.86776e-36
6.37027e-35
7.97081e-34
6.82317e-33
3.17899e-32
3.17566e-32
6.78513e-33
8.50545e-34
1.34676e-51
7.79578e-50
4.29502e-48
2.20556e-46
1.04947e-44
4.59545e-43
1.83671e-41
6.6345e-40
2.13963e-38
6.06659e-37
1.48225e-35
3.03719e-34
5.02032e-33
6.30415e-32
5.41538e-31
2.53123e-30
2.52883e-30
5.38817e-31
6.73233e-32
9.71945e-50
5.6463e-48
3.12178e-46
1.60877e-44
7.68225e-43
3.37594e-41
1.35413e-39
4.90892e-38
1.58883e-36
4.52115e-35
1.10865e-33
2.27989e-32
3.78215e-31
4.7664e-30
4.10882e-29
1.92674e-28
1.92509e-28
4.09033e-29
5.09395e-30
6.68782e-48
3.8991e-46
2.16343e-44
1.11886e-42
5.36192e-41
2.36472e-39
9.51926e-38
3.46331e-36
1.125e-34
3.21287e-33
7.90698e-32
1.63195e-30
2.71709e-29
3.4365e-28
2.97285e-27
1.39859e-26
1.39752e-26
2.96098e-27
3.67526e-28
4.37548e-46
2.56017e-44
1.42557e-42
7.39902e-41
3.55853e-39
1.57503e-37
6.36321e-36
2.32345e-34
7.57471e-33
2.17112e-31
5.36267e-30
1.11085e-28
1.85623e-27
2.3562e-26
2.04553e-25
9.65468e-25
9.6481e-25
2.03834e-25
2.52157e-26
2.71354e-44
1.59348e-42
8.90464e-41
4.63826e-39
2.23878e-37
9.94477e-36
4.03228e-34
1.47769e-32
4.83495e-31
1.39089e-29
3.44806e-28
7.16861e-27
1.20225e-25
1.53161e-24
1.33439e-23
6.31883e-23
6.31504e-23
1.33031e-23
1.64012e-24
1.58973e-42
9.36928e-41
5.2545e-39
2.74682e-37
1.33061e-35
5.93204e-34
2.41399e-32
8.87862e-31
2.91568e-29
8.41837e-28
2.09459e-26
4.37071e-25
7.35699e-24
9.40661e-23
8.22462e-22
3.90748e-21
3.90543e-21
8.203e-22
1.00788e-22
8.76406e-41
5.18403e-39
2.91778e-37
1.53079e-35
7.44228e-34
3.32993e-32
1.36002e-30
5.02044e-29
1.65472e-27
4.7952e-26
1.1975e-24
2.50798e-23
4.23709e-22
5.43733e-21
4.77113e-20
2.27424e-19
2.2732e-19
4.76053e-20
5.82894e-21
4.52657e-39
2.68729e-37
1.51797e-35
7.99278e-34
3.9e-32
1.75135e-30
7.17911e-29
2.65985e-27
8.79905e-26
2.55927e-24
6.41484e-23
1.34846e-21
2.28655e-20
2.94503e-19
2.5935e-18
1.24033e-17
1.23985e-17
2.58872e-18
3.15865e-19
2.17931e-37
1.29853e-35
7.3616e-34
3.89028e-32
1.90515e-30
8.58666e-29
3.53274e-27
1.3137e-25
4.36188e-24
1.27338e-22
3.20358e-21
6.75921e-20
1.15039e-18
1.48714e-17
1.31435e-16
6.30678e-16
6.30471e-16
1.31239e-16
1.59569e-17
9.72314e-36
5.8148e-34
3.30849e-32
1.75477e-30
8.62489e-29
3.90158e-27
1.61111e-25
6.01324e-24
2.00398e-22
5.87202e-21
1.48278e-19
3.14016e-18
5.36431e-17
6.96019e-16
6.17379e-15
2.97234e-14
2.97153e-14
6.16661e-15
7.47105e-16
3.99255e-34
2.3965e-32
1.36852e-30
7.28498e-29
3.59379e-27
1.63169e-25
6.76274e-24
2.53345e-22
8.47439e-21
2.4924e-19
6.31722e-18
1.34283e-16
2.3025e-15
2.99857e-14
2.66945e-13
1.2895e-12
1.28922e-12
2.66714e-13
3.21971e-14
1.49658e-32
9.01635e-31
5.16763e-29
2.76095e-27
1.36703e-25
6.22965e-24
2.59153e-22
9.74447e-21
3.27168e-19
9.65829e-18
2.45715e-16
5.24265e-15
9.02303e-14
1.17945e-12
1.05382e-11
5.10776e-11
5.10687e-11
1.0532e-11
1.26678e-12
5.07072e-31
3.06626e-29
1.76384e-27
9.45848e-26
4.70049e-24
2.14998e-22
8.97714e-21
3.3881e-19
1.1418e-17
3.38333e-16
8.63981e-15
1.85035e-13
3.19656e-12
4.194e-11
3.761e-10
1.82907e-09
1.82883e-09
3.75967e-10
4.50552e-11
1.53419e-29
9.31174e-28
5.3762e-26
2.89359e-24
1.44332e-22
6.62621e-21
2.77706e-19
1.05202e-17
3.55863e-16
1.05844e-14
2.71306e-13
5.83234e-12
1.01136e-10
1.3319e-09
1.19878e-08
5.84973e-08
5.84917e-08
1.19861e-08
1.43107e-09
4.08194e-28
2.48676e-26
1.44104e-24
7.78466e-23
3.8974e-21
1.79593e-19
7.5549e-18
2.87271e-16
9.75394e-15
2.91205e-13
7.49251e-12
1.61677e-10
2.81414e-09
3.71998e-08
3.3605e-07
1.64541e-06
1.6453e-06
3.36062e-07
3.9974e-08
9.36195e-27
5.72467e-25
3.3296e-23
1.80535e-21
9.07208e-20
4.19603e-18
1.77174e-16
6.76222e-15
2.30467e-13
6.90657e-12
1.78374e-10
3.86361e-09
6.7504e-08
8.95682e-07
8.12119e-06
3.98991e-05
3.98975e-05
8.12272e-06
9.62528e-07
1.80161e-25
1.10576e-23
6.4551e-22
3.513e-20
1.77188e-18
8.22587e-17
3.4863e-15
1.33562e-13
4.56912e-12
1.37443e-10
3.56312e-09
7.74699e-08
1.35866e-06
1.80955e-05
0.000164704
0.000811831
0.000811814
0.000164754
1.94459e-05
2.79926e-24
1.72448e-22
1.0104e-20
5.5191e-19
2.79403e-17
1.30194e-15
5.53848e-14
2.12976e-12
7.31322e-11
2.20816e-09
5.7461e-08
1.25405e-06
2.20766e-05
0.000295185
0.00270245
0.0133409
0.0133408
0.0027035
0.000317188
3.31003e-23
2.04665e-21
1.20354e-19
6.59811e-18
3.35254e-16
1.56795e-14
6.69474e-13
2.58393e-11
8.90581e-10
2.69906e-08
7.0498e-07
1.54434e-05
0.000272914
0.0036683
0.0346954
0.167733
0.167733
0.0347103
0.00394084
2.68969e-22
1.66904e-20
9.84961e-19
5.41903e-17
2.76328e-15
1.29699e-13
5.55772e-12
2.15283e-10
7.44682e-09
2.26509e-07
5.93784e-06
0.000130552
0.00231564
0.0312234
0.289925
1.43142
1.43143
0.290058
0.0335384
1.21039e-21
7.5349e-20
4.46069e-18
2.46197e-16
1.25941e-14
5.93019e-13
2.54933e-11
9.9069e-10
3.43799e-08
1.04913e-06
2.75923e-05
0.000608641
0.0108306
0.14642
1.35532
6.74853
6.74856
1.35593
0.15725
1.4456e-21
8.99569e-20
5.32348e-18
2.93704e-16
1.50186e-14
7.069e-13
3.03768e-11
1.17999e-09
4.09327e-08
1.24858e-06
3.28248e-05
0.000723792
0.0128758
0.174041
1.61048
8.01221
8.01224
1.61121
0.186916
1.47572e-21
9.18213e-20
5.43323e-18
2.99727e-16
1.53249e-14
7.2124e-13
3.09896e-11
1.20367e-09
4.17497e-08
1.27339e-06
3.34746e-05
0.000738108
0.0131316
0.177541
1.64322
8.16747
8.1675
1.64396
0.190673
1.47831e-21
9.19814e-20
5.44262e-18
3.00241e-16
1.5351e-14
7.22459e-13
3.10418e-11
1.20569e-09
4.18202e-08
1.27557e-06
3.35344e-05
0.000739526
0.0131599
0.177981
1.64759
8.18198
8.18201
1.64833
0.191141
1.47848e-21
9.19921e-20
5.44327e-18
3.00278e-16
1.53529e-14
7.22558e-13
3.10466e-11
1.20592e-09
4.183e-08
1.27598e-06
3.35494e-05
0.000739999
0.0131717
0.178189
1.64957
8.18475
8.18479
1.65031
0.19136
1.47852e-21
9.1995e-20
5.44349e-18
3.00295e-16
1.53541e-14
7.22638e-13
3.10514e-11
1.20619e-09
4.18434e-08
1.27656e-06
3.35705e-05
0.000740629
0.0131861
0.178413
1.65143
8.18686
8.18689
1.65217
0.191599
1.47865e-21
9.20052e-20
5.44426e-18
3.00349e-16
1.53577e-14
7.22855e-13
3.10635e-11
1.20678e-09
4.18699e-08
1.27757e-06
3.36035e-05
0.000741498
0.0132036
0.178653
1.6532
8.18885
8.18888
1.65394
0.191857
1.47918e-21
9.20435e-20
5.4469e-18
3.00519e-16
1.53679e-14
7.23412e-13
3.10913e-11
1.20804e-09
4.19196e-08
1.27929e-06
3.36535e-05
0.000742679
0.0132248
0.178916
1.65493
8.19083
8.19086
1.65568
0.192141
1.48098e-21
9.21643e-20
5.45461e-18
3.00977e-16
1.5393e-14
7.24679e-13
3.11493e-11
1.21042e-09
4.2006e-08
1.282e-06
3.37254e-05
0.00074422
0.0132501
0.179198
1.65664
8.19279
8.19282
1.65738
0.192448
1.48565e-21
9.24598e-20
5.47231e-18
3.01963e-16
1.54436e-14
7.27062e-13
3.12509e-11
1.2143e-09
4.21366e-08
1.2858e-06
3.38184e-05
0.000746062
0.0132778
0.179485
1.65825
8.19465
8.19468
1.65899
0.192763
1.49262e-21
9.28815e-20
5.49648e-18
3.03248e-16
1.55066e-14
7.29881e-13
3.13651e-11
1.21844e-09
4.22687e-08
1.28944e-06
3.39025e-05
0.000747633
0.0133002
0.179702
1.6594
8.196
8.19603
1.66015
0.193003
1.49423e-21
9.29777e-20
5.50195e-18
3.03536e-16
1.55206e-14
7.30504e-13
3.13901e-11
1.21933e-09
4.22971e-08
1.29021e-06
3.39202e-05
0.00074796
0.0133047
0.179746
1.65963
8.19627
8.1963
1.66038
0.193051
1.49442e-21
9.29893e-20
5.50261e-18
3.03571e-16
1.55223e-14
7.30578e-13
3.13931e-11
1.21944e-09
4.23004e-08
1.2903e-06
3.39222e-05
0.000747997
0.0133053
0.179751
1.65966
8.1963
8.19633
1.6604
0.193057
1.49444e-21
9.29903e-20
5.50266e-18
3.03574e-16
1.55224e-14
7.30584e-13
3.13933e-11
1.21945e-09
4.23006e-08
1.29031e-06
3.39224e-05
0.000748
0.0133053
0.179752
1.65966
8.1963
8.19633
1.66041
0.193057
1.49444e-21
9.29904e-20
5.50267e-18
3.03574e-16
1.55225e-14
7.30584e-13
3.13933e-11
1.21945e-09
4.23007e-08
1.29031e-06
3.39224e-05
0.000748
0.0133053
0.179752
1.65966
8.1963
8.19633
1.66041
0.193057
1.49446e-21
9.29916e-20
5.50273e-18
3.03576e-16
1.55225e-14
7.30586e-13
3.13934e-11
1.21945e-09
4.23006e-08
1.29031e-06
3.39223e-05
0.000747997
0.0133052
0.179751
1.65965
8.19626
8.19629
1.6604
0.193056
1.49491e-21
9.30144e-20
5.50379e-18
3.03621e-16
1.55242e-14
7.30635e-13
3.13944e-11
1.21945e-09
4.22997e-08
1.29025e-06
3.39202e-05
0.000747941
0.0133041
0.179735
1.6595
8.19549
8.19552
1.66024
0.193038
1.50192e-21
9.337e-20
5.52051e-18
3.04324e-16
1.55499e-14
7.31413e-13
3.14111e-11
1.21953e-09
4.22851e-08
1.28936e-06
3.3887e-05
0.000747043
0.0132859
0.17947
1.65697
8.18297
8.183
1.6577
0.19274
1.58377e-21
9.75439e-20
5.71769e-18
3.12662e-16
1.5857e-14
7.40759e-13
3.16151e-11
1.22062e-09
4.21159e-08
1.27879e-06
3.3491e-05
0.000736234
0.0130662
0.176249
1.62477
8.02837
8.02837
1.62533
0.189115
2.22738e-21
1.30507e-19
7.28195e-18
3.79136e-16
1.83196e-14
8.16297e-13
3.3288e-11
1.23089e-09
4.07991e-08
1.19458e-06
3.03056e-05
0.000648754
0.0112786
0.149976
1.37106
6.7662
6.76597
1.37025
0.15954
4.82124e-21
2.63912e-19
1.36405e-17
6.50637e-16
2.8434e-14
1.12884e-12
4.03053e-11
1.27887e-09
3.5547e-08
8.50842e-07
1.7186e-05
0.000286258
0.00383532
0.0402026
0.31205
1.45547
1.45427
0.305455
0.0359458
5.4635e-21
2.96818e-19
1.52026e-17
7.17041e-16
3.08948e-14
1.20435e-12
4.19785e-11
1.28918e-09
3.42319e-08
7.66665e-07
1.40005e-05
0.000198726
0.00204503
0.0138651
0.0584092
0.193301
0.191873
0.0504426
0.00630289
5.54498e-21
3.00976e-19
1.53991e-17
7.25358e-16
3.12014e-14
1.21369e-12
4.21825e-11
1.29028e-09
3.40625e-08
7.56057e-07
1.36016e-05
0.000187771
0.00181984
0.0105155
0.0258633
0.0382283
0.0367717
0.0177289
0.00254364
5.55194e-21
3.0133e-19
1.54158e-17
7.26058e-16
3.1227e-14
1.21446e-12
4.21987e-11
1.29031e-09
3.40454e-08
7.55025e-07
1.35617e-05
0.000186604
0.00179356
0.0100833
0.0215147
0.0237287
0.0222697
0.0133662
0.00207006
5.55238e-21
3.01352e-19
1.54168e-17
7.26098e-16
3.12282e-14
1.21448e-12
4.21978e-11
1.2902e-09
3.40379e-08
7.5465e-07
1.35466e-05
0.000186112
0.00178127
0.00987125
0.0195431
0.0209577
0.0194985
0.0113934
0.00184475
5.55233e-21
3.01348e-19
1.54165e-17
7.26076e-16
3.12267e-14
1.21438e-12
4.21918e-11
1.28988e-09
3.40224e-08
7.53996e-07
1.35232e-05
0.000185433
0.0017662
0.00964202
0.0176872
0.0188586
0.0173994
0.00953678
0.00160045
5.55154e-21
3.01301e-19
1.54138e-17
7.25929e-16
3.12189e-14
1.21399e-12
4.21732e-11
1.28905e-09
3.39888e-08
7.52787e-07
1.34859e-05
0.000184489
0.00174781
0.00939582
0.0159213
0.0168652
0.0154061
0.00777071
0.00133679
5.54123e-21
3.00735e-19
1.53843e-17
7.24499e-16
3.11547e-14
1.21133e-12
4.2072e-11
1.28554e-09
3.38788e-08
7.49716e-07
1.34111e-05
0.00018296
0.00172318
0.00911631
0.0141738
0.0148743
0.0134174
0.00603451
0.00104771
5.42685e-21
2.9454e-19
1.50676e-17
7.09573e-16
3.05109e-14
1.18615e-12
4.11881e-11
1.25807e-09
3.31354e-08
7.32563e-07
1.30832e-05
0.000177967
0.00166615
0.0086746
0.0122942
0.0127369
0.0113075
0.00430623
0.000733078
4.54215e-21
2.46605e-19
1.26192e-17
5.9443e-16
2.55655e-14
9.94035e-13
3.45192e-11
1.05429e-09
2.77605e-08
6.13359e-07
1.09414e-05
0.000148491
0.0013834
0.00710557
0.00923015
0.00942228
0.00821848
0.00249989
0.000396115
1.0008e-21
5.41765e-20
2.76419e-18
1.29821e-16
5.56655e-15
2.15777e-13
7.46987e-12
2.27425e-10
5.96898e-09
1.31447e-07
2.3368e-06
3.16002e-05
0.000293238
0.0014986
0.00191899
0.00195377
0.00169814
0.000493461
7.6884e-05
1.21978e-22
6.58144e-21
3.34706e-19
1.56679e-17
6.69583e-16
2.58677e-14
8.92445e-13
2.70772e-11
7.08177e-10
1.55398e-08
2.75262e-07
3.70859e-06
3.42832e-05
0.000174488
0.000222054
0.00022581
0.00019591
5.57806e-05
8.62896e-06
1.02106e-23
5.49086e-22
2.78317e-20
1.29845e-18
5.53025e-17
2.12914e-15
7.32012e-14
2.21316e-12
5.76772e-11
1.26108e-09
2.22566e-08
2.98757e-07
2.75147e-06
1.39508e-05
1.76867e-05
1.79723e-05
1.55723e-05
4.37887e-06
6.74716e-07
6.50211e-25
3.48486e-23
1.76051e-21
8.18582e-20
3.47457e-18
1.33311e-16
4.56739e-15
1.37605e-13
3.57339e-12
7.785e-11
1.36898e-09
1.83089e-08
1.67999e-07
8.48703e-07
1.07302e-06
1.08974e-06
9.43204e-07
2.62851e-07
4.03996e-08
3.34191e-26
1.78515e-24
8.98847e-23
4.16536e-21
1.76206e-19
6.73746e-18
2.30035e-16
6.9062e-15
1.7871e-13
3.8795e-12
6.79745e-11
9.05805e-10
8.28133e-09
4.16876e-08
5.25904e-08
5.3385e-08
4.61627e-08
1.27733e-08
1.95982e-09
1.44076e-27
7.67059e-26
3.84954e-24
1.77799e-22
7.49607e-21
2.85649e-19
9.71934e-18
2.90786e-16
7.49825e-15
1.62199e-13
2.83182e-12
3.76004e-11
3.4253e-10
1.7183e-09
2.16367e-09
2.19549e-09
1.89681e-09
5.21731e-10
7.99489e-11
5.35269e-29
2.84039e-27
1.42082e-25
6.54067e-24
2.74838e-22
1.04378e-20
3.53944e-19
1.0553e-17
2.71176e-16
5.8454e-15
1.01694e-13
1.34549e-12
1.22136e-11
6.10612e-11
7.6763e-11
7.78639e-11
6.72162e-11
1.83928e-11
2.81582e-12
1.74826e-30
9.2468e-29
4.61045e-27
2.11546e-25
8.85979e-24
3.35355e-22
1.13335e-20
3.36761e-19
8.62388e-18
1.85249e-16
3.21157e-15
4.2342e-14
3.83015e-13
1.90846e-12
2.39573e-12
2.42929e-12
2.09546e-12
5.70764e-13
8.73182e-14
5.09745e-32
2.6874e-30
1.33564e-28
6.1086e-27
2.54998e-25
9.6201e-24
3.24029e-22
9.59571e-21
2.44893e-19
5.24248e-18
9.05718e-17
1.18997e-15
1.0727e-14
5.32739e-14
6.67873e-14
6.77024e-14
5.83551e-14
1.5829e-14
2.42031e-15
1.31071e-33
6.88856e-32
3.41304e-30
1.55609e-28
6.47527e-27
2.43509e-25
8.1756e-24
2.41323e-22
6.13861e-21
1.30975e-19
2.25525e-18
2.95311e-17
2.65322e-16
1.31351e-15
1.64474e-15
1.66681e-15
1.43567e-15
3.87993e-16
5.93023e-17
)
;

boundaryField
{
    top
    {
        type            zeroGradient;
    }
    left
    {
        type            fixedValue;
        value           uniform 0;
    }
    bottom
    {
        type            zeroGradient;
    }
    right
    {
        type            zeroGradient;
    }
    frontAndBack
    {
        type            empty;
    }
}


// ************************************************************************* //
