/*--------------------------------*- C++ -*----------------------------------*\
| =========                 |                                                 |
| \\      /  F ield         | OpenFOAM: The Open Source CFD Toolbox           |
|  \\    /   O peration     | Version:  v1806                                 |
|   \\  /    A nd           | Web:      www.OpenFOAM.com                      |
|    \\/     M anipulation  |                                                 |
\*---------------------------------------------------------------------------*/
FoamFile
{
    version     2.0;
    format      ascii;
    class       volScalarField;
    location    "0.025";
    object      T;
}
// * * * * * * * * * * * * * * * * * * * * * * * * * * * * * * * * * * * * * //

dimensions      [0 0 0 1 0 0 0];


internalField   nonuniform List<scalar> 
1881
(
3.82737e-47
7.22088e-47
1.53537e-45
9.51446e-44
5.52123e-42
2.86978e-40
1.33126e-38
5.47701e-37
1.97897e-35
6.19371e-34
1.64744e-32
3.62626e-31
6.35472e-30
8.34749e-29
7.3968e-28
3.5132e-27
3.51065e-27
7.37108e-28
8.9439e-29
7.04077e-46
6.27529e-46
-9.30202e-45
-5.0537e-43
-2.25663e-41
-8.94483e-40
-3.08615e-38
-8.94239e-37
-2.02402e-35
-2.86416e-34
1.1122e-33
2.11194e-31
6.96068e-30
1.35043e-28
1.59539e-27
9.46546e-27
9.51073e-27
1.6517e-27
1.54962e-28
5.22114e-46
-4.81964e-46
-5.27442e-44
-3.06286e-42
-1.62272e-40
-7.80369e-39
-3.38097e-37
-1.30727e-35
-4.4568e-34
-1.31895e-32
-3.31918e-31
-6.90582e-30
-1.14103e-28
-1.4072e-27
-1.16387e-26
-5.1377e-26
-5.12344e-26
-1.14732e-26
-1.48689e-27
-2.21941e-44
-2.50394e-44
2.14723e-44
1.15541e-42
-2.89735e-41
-5.50592e-39
-4.08591e-37
-2.22387e-35
-9.7888e-34
-3.57066e-32
-1.07811e-30
-2.64959e-29
-5.12963e-28
-7.39419e-27
-7.15668e-26
-3.6876e-25
-3.69275e-25
-7.22438e-26
-8.07358e-27
-9.4451e-44
-8.05011e-44
1.20274e-42
6.99083e-41
3.41225e-39
1.50884e-37
5.99458e-36
2.11378e-34
6.5117e-33
1.71637e-31
3.76098e-30
6.56753e-29
8.53572e-28
7.24925e-27
2.80943e-26
-3.73814e-26
-4.1858e-26
2.26592e-26
6.89181e-27
4.08765e-43
5.60282e-43
3.79264e-42
2.01529e-40
1.15877e-38
6.00218e-37
2.78027e-35
1.14395e-33
4.13926e-32
1.29896e-30
3.46853e-29
7.67405e-28
1.35352e-26
1.79205e-25
1.60294e-24
7.6935e-24
7.69039e-24
1.60023e-24
1.92428e-25
4.48424e-42
4.7895e-42
-1.12955e-41
-8.00887e-40
-3.36584e-38
-1.21331e-36
-3.5864e-35
-7.56004e-34
-4.20857e-33
5.32843e-31
3.09186e-29
1.03981e-27
2.45216e-26
4.06872e-25
4.38554e-24
2.45502e-23
2.46289e-23
4.48433e-24
4.54286e-25
2.22702e-42
-9.83589e-43
-1.20011e-40
-6.67021e-39
-3.42989e-37
-1.60599e-35
-6.78801e-34
-2.56386e-32
-8.5448e-31
-2.47253e-29
-6.08129e-28
-1.23521e-26
-1.98834e-25
-2.38117e-24
-1.90312e-23
-8.07613e-23
-8.04666e-23
-1.86848e-23
-2.50534e-24
-1.34169e-40
-1.57539e-40
-2.27681e-40
-5.43988e-39
-4.21911e-37
-2.67993e-35
-1.4324e-33
-6.57442e-32
-2.59978e-30
-8.79945e-29
-2.51237e-27
-5.90961e-26
-1.10411e-24
-1.54507e-23
-1.45857e-22
-7.36423e-22
-7.37029e-22
-1.4669e-22
-1.67632e-23
-5.24995e-40
-5.25913e-40
1.5893e-39
1.12612e-37
5.34239e-36
2.28089e-34
8.7084e-33
2.92931e-31
8.50678e-30
2.07116e-28
4.03453e-27
5.74889e-26
4.63337e-25
-1.17386e-24
-7.67611e-23
-6.79224e-22
-6.8644e-22
-8.55996e-23
-2.70574e-24
2.33496e-39
3.02728e-39
1.1432e-38
4.632e-37
2.49291e-35
1.22928e-33
5.46415e-32
2.16966e-30
7.60798e-29
2.32086e-27
6.03813e-26
1.30379e-24
2.24685e-23
2.90867e-22
2.54516e-21
1.19653e-20
1.19549e-20
2.53414e-21
3.11174e-22
2.37029e-38
2.64006e-38
1.41093e-38
-6.27299e-37
-2.10507e-35
-3.923e-34
8.65276e-33
1.30628e-30
7.79146e-29
3.32934e-27
1.11232e-25
2.94061e-24
6.0276e-23
9.11039e-22
9.18591e-21
4.90094e-20
4.91058e-20
9.30901e-21
1.00004e-21
1.02613e-38
3.90526e-40
-1.99965e-37
-1.04631e-35
-5.2045e-34
-2.36302e-32
-9.68825e-31
-3.54808e-29
-1.14515e-27
-3.20174e-26
-7.58142e-25
-1.47425e-23
-2.25235e-22
-2.52544e-21
-1.84908e-20
-6.96937e-20
-6.92338e-20
-1.7942e-20
-2.62905e-21
-6.58046e-37
-7.70069e-37
-1.22338e-36
-2.20563e-35
-1.25371e-33
-6.66961e-32
-3.16508e-30
-1.3317e-28
-4.92313e-27
-1.57816e-25
-4.30617e-24
-9.74353e-23
-1.7597e-21
-2.38941e-20
-2.19569e-19
-1.0832e-18
-1.08348e-18
-2.20037e-19
-2.57793e-20
-2.48714e-36
-2.60859e-36
-4.4165e-37
1.13095e-34
5.14624e-33
2.03861e-31
7.05253e-30
2.06196e-28
4.7759e-27
7.30835e-26
2.8872e-26
-4.0318e-23
-1.42395e-21
-2.8367e-20
-3.40565e-19
-2.04481e-18
-2.05313e-18
-3.50895e-19
-3.21477e-20
1.03506e-35
1.2987e-35
2.89578e-35
7.38513e-34
3.73021e-32
1.76443e-30
7.55392e-29
2.89671e-27
9.82801e-26
2.90436e-24
7.32415e-23
1.53283e-21
2.5585e-20
3.20361e-19
2.70627e-18
1.22734e-17
1.22538e-17
2.68395e-18
3.41098e-19
1.03387e-34
1.15585e-34
1.31384e-34
4.55133e-34
3.02342e-32
2.06638e-30
1.15472e-28
5.46383e-27
2.21186e-25
7.63533e-24
2.21882e-22
5.30663e-21
1.00769e-19
1.43328e-18
1.37548e-17
7.05655e-17
7.06382e-17
1.38513e-17
1.55667e-18
5.74507e-35
2.87141e-35
-2.14738e-34
-1.0729e-32
-5.1021e-31
-2.21794e-29
-8.67629e-28
-3.01503e-26
-9.15739e-25
-2.37916e-23
-5.13142e-22
-8.7864e-21
-1.1089e-19
-8.87188e-19
-2.69364e-18
1.15906e-17
1.20963e-17
-2.07953e-18
-8.59351e-19
-2.59171e-33
-3.00225e-33
-4.16629e-33
-4.18943e-32
-2.04803e-30
-1.0059e-28
-4.4723e-27
-1.77992e-25
-6.26781e-24
-1.92385e-22
-5.0462e-21
-1.10085e-19
-1.92113e-18
-2.5249e-17
-2.24903e-16
-1.0783e-15
-1.07793e-15
-2.24576e-16
-2.71053e-17
-9.99081e-33
-1.05954e-32
-1.00613e-32
3.5968e-32
1.56092e-30
3.33983e-29
-2.90886e-28
-7.70969e-26
-4.89505e-24
-2.14644e-22
-7.28369e-21
-1.948e-19
-4.0326e-18
-6.15126e-17
-6.25788e-16
-3.36732e-15
-3.37351e-15
-6.3367e-16
-6.7351e-17
3.48127e-32
4.31412e-32
6.75792e-32
7.79394e-31
3.54657e-29
1.60701e-27
6.60405e-26
2.43018e-24
7.9028e-23
2.23362e-21
5.36884e-20
1.0656e-18
1.67455e-17
1.95347e-16
1.51503e-15
6.20886e-15
6.18613e-15
1.4882e-15
2.06038e-16
3.68083e-31
4.09561e-31
4.83885e-31
1.99469e-30
8.5427e-29
4.39224e-27
2.04064e-25
8.45203e-24
3.08848e-22
9.81812e-21
2.66401e-19
6.00857e-18
1.08404e-16
1.47344e-15
1.35789e-14
6.72859e-14
6.73056e-14
1.36102e-14
1.58914e-15
3.16036e-31
2.46016e-31
1.54997e-32
-5.60056e-30
-2.43893e-28
-9.47722e-27
-3.20147e-25
-9.02091e-24
-1.94221e-22
-2.32364e-21
3.2327e-20
2.72872e-18
8.32989e-17
1.57489e-15
1.84258e-14
1.09106e-13
1.0946e-13
1.88668e-14
1.75856e-15
-8.0561e-30
-9.26261e-30
-1.15128e-29
-4.99338e-29
-1.92045e-27
-8.90746e-26
-3.77253e-24
-1.4342e-22
-4.83307e-21
-1.42118e-19
-3.57257e-18
-7.46719e-17
-1.24727e-15
-1.56634e-14
-1.33034e-13
-6.08044e-13
-6.07303e-13
-1.32203e-13
-1.67211e-14
-3.34889e-29
-3.56269e-29
-3.83285e-29
-7.80333e-29
-2.52959e-27
-1.40991e-25
-7.02106e-24
-3.07648e-22
-1.17883e-20
-3.90559e-19
-1.09967e-17
-2.56579e-16
-4.77813e-15
-6.69267e-14
-6.34721e-13
-3.2287e-12
-3.23102e-12
-6.37874e-13
-7.24164e-14
8.45563e-29
1.05598e-28
1.42293e-28
5.39198e-28
1.74772e-26
7.34277e-25
2.80145e-23
9.46366e-22
2.77761e-20
6.90252e-19
1.39725e-17
2.15736e-16
2.20301e-15
8.0367e-15
-1.1927e-13
-1.47029e-12
-1.48559e-12
-1.37949e-13
5.97625e-15
1.05083e-27
1.16413e-27
1.33292e-27
3.04821e-27
8.46913e-26
3.96911e-24
1.71817e-22
6.68236e-21
2.30599e-19
6.95299e-18
1.79531e-16
3.86277e-15
6.65988e-14
8.66151e-13
7.64678e-12
3.64066e-11
3.63912e-11
7.63194e-12
9.29144e-13
1.39331e-27
1.27633e-27
1.05313e-27
1.01307e-27
3.77389e-26
2.85267e-24
1.67949e-22
8.21477e-21
3.40825e-19
1.20063e-17
3.55265e-16
8.64262e-15
1.66877e-13
2.41365e-12
2.3559e-11
1.22866e-10
1.22995e-10
2.37279e-11
2.6184e-12
-1.92318e-26
-2.20519e-26
-2.61221e-26
-4.8034e-26
-9.05102e-25
-3.84559e-23
-1.53359e-21
-5.47446e-20
-1.72335e-18
-4.69938e-17
-1.08426e-15
-2.04954e-14
-3.0296e-13
-3.25722e-12
-2.24693e-11
-7.71976e-11
-7.66769e-11
-2.18474e-11
-3.41649e-12
-9.12131e-26
-9.73173e-26
-1.05e-25
-1.67072e-25
-3.12674e-24
-1.46373e-22
-6.44168e-21
-2.54792e-19
-8.9441e-18
-2.74446e-16
-7.21612e-15
-1.58235e-13
-2.78328e-12
-3.69737e-11
-3.33815e-10
-1.62543e-09
-1.62536e-09
-3.33892e-10
-3.97581e-11
1.30635e-25
1.71105e-25
2.29401e-25
3.28194e-25
1.08678e-24
-6.40763e-24
-1.99139e-21
-1.41686e-19
-7.07974e-18
-2.79647e-16
-8.95619e-15
-2.31119e-13
-4.67457e-12
-7.02274e-11
-7.07617e-10
-3.78759e-09
-3.79263e-09
-7.14094e-10
-7.63541e-11
2.34355e-24
2.59105e-24
2.9148e-24
3.93576e-24
3.77996e-23
1.54352e-21
6.28651e-20
2.30345e-18
7.47743e-17
2.11537e-15
5.10523e-14
1.02121e-12
1.625e-11
1.93166e-10
1.53975e-09
6.55319e-09
6.53885e-09
1.52306e-09
2.05467e-10
4.55757e-24
4.4874e-24
4.30055e-24
5.64868e-24
9.66442e-23
4.58485e-21
2.04094e-19
8.16316e-18
2.89786e-16
8.99402e-15
2.39272e-13
5.31087e-12
9.46063e-11
1.27352e-09
1.16573e-08
5.75373e-08
5.75456e-08
1.1673e-08
1.37095e-09
-3.37264e-23
-3.88181e-23
-4.56124e-23
-5.50527e-23
-1.27318e-22
-1.93471e-21
-2.84268e-20
8.77459e-19
9.77177e-17
4.98233e-15
1.82035e-13
5.09931e-12
1.09181e-10
1.71126e-09
1.78204e-08
9.78394e-08
9.79897e-08
1.80116e-08
1.86342e-09
-1.94922e-22
-2.08724e-22
-2.25079e-22
-2.62517e-22
-1.33613e-21
-4.93543e-20
-2.027e-18
-7.52318e-17
-2.47892e-15
-7.13602e-14
-1.75783e-12
-3.60295e-11
-5.90435e-10
-7.27608e-09
-6.06437e-08
-2.72188e-07
-2.71858e-07
-6.0271e-08
-7.77498e-09
6.36839e-23
1.1924e-22
1.98488e-22
2.48885e-22
-2.13527e-21
-1.24912e-19
-5.60526e-18
-2.25043e-16
-8.02158e-15
-2.50095e-13
-6.68678e-12
-1.49237e-10
-2.67449e-09
-3.62378e-08
-3.34031e-07
-1.66034e-06
-1.66069e-06
-3.34616e-07
-3.90197e-08
3.93496e-21
4.35469e-21
4.88635e-21
5.51943e-21
8.17475e-21
7.44218e-20
1.62135e-18
1.30974e-17
-1.23773e-15
-8.82861e-14
-3.61597e-12
-1.07422e-10
-2.38533e-09
-3.83418e-08
-4.06818e-07
-2.26507e-06
-2.26858e-06
-4.11276e-07
-4.17309e-08
1.07392e-20
1.09595e-20
1.10772e-20
1.1577e-20
3.82318e-20
1.26006e-18
5.17672e-17
1.92884e-15
6.38749e-14
1.8502e-12
4.5924e-11
9.5003e-10
1.57444e-08
1.96683e-07
1.66642e-06
7.62083e-06
7.61423e-06
1.65915e-06
2.10563e-07
-3.99982e-20
-4.68228e-20
-5.58779e-20
-6.50872e-20
-1.5438e-20
2.96162e-18
1.35382e-16
5.40909e-15
1.9196e-13
5.96427e-12
1.59055e-10
3.54354e-09
6.34394e-08
8.59311e-07
7.9239e-06
3.9424e-05
3.94316e-05
7.93669e-06
9.24944e-07
-3.1346e-19
-3.37055e-19
-3.65215e-19
-3.95293e-19
-4.5471e-19
-1.27402e-18
-9.66852e-18
6.37288e-16
5.59329e-14
2.71323e-12
9.70847e-11
2.69062e-09
5.72755e-08
8.95103e-07
9.31198e-06
5.11424e-05
5.12064e-05
9.39392e-06
9.70702e-07
-2.30513e-19
-1.8209e-19
-1.09443e-19
-2.94594e-20
-4.5166e-19
-2.43953e-17
-1.01436e-15
-3.76514e-14
-1.24197e-12
-3.58479e-11
-8.86999e-10
-1.82993e-08
-3.02563e-07
-3.77261e-06
-3.19191e-05
-0.000145849
-0.000145731
-3.17904e-05
-4.04114e-06
4.7204e-18
5.25214e-18
5.9264e-18
6.64317e-18
6.1289e-18
-5.62194e-17
-2.81291e-15
-1.11141e-13
-3.8967e-12
-1.19756e-10
-3.16248e-09
-6.98395e-08
-1.24055e-06
-1.66873e-05
-0.000152946
-0.000757187
-0.000757267
-0.000153111
-1.79491e-05
1.77992e-17
1.85175e-17
1.92501e-17
1.98854e-17
2.01237e-17
-1.31578e-18
-1.32103e-15
-6.70108e-14
-2.82687e-12
-1.01029e-10
-3.03096e-09
-7.47642e-08
-1.46443e-06
-2.1501e-05
-0.000213176
-0.00112913
-0.00112999
-0.000214318
-2.32123e-05
-2.57132e-17
-3.2174e-17
-4.0808e-17
-5.0582e-17
-5.43882e-17
2.6334e-16
1.36217e-14
5.00321e-13
1.62231e-11
4.59676e-10
1.11484e-08
2.24987e-07
3.62954e-06
4.40095e-05
0.000360638
0.00159103
0.00158925
0.000358636
4.71144e-05
-3.61527e-16
-3.90762e-16
-4.26217e-16
-4.63278e-16
-4.79675e-16
5.42461e-16
4.59461e-14
1.79858e-12
6.19965e-11
1.87466e-09
4.87539e-08
1.06122e-06
1.85947e-05
0.000246925
0.00223612
0.0109533
0.010953
0.00223675
0.000265386
-6.37486e-16
-6.198e-16
-5.87011e-16
-5.40401e-16
-4.55917e-16
8.1113e-16
5.55189e-14
2.30512e-12
8.44747e-11
2.70674e-09
7.43754e-08
1.7063e-06
3.14449e-05
0.000438327
0.00415771
0.0212397
0.0212471
0.0041684
0.000471817
3.73854e-15
4.22289e-15
4.83786e-15
5.51627e-15
6.20662e-15
4.91294e-15
-7.3804e-14
-2.75898e-12
-8.19863e-11
-2.07738e-09
-4.35936e-08
-7.21417e-07
-8.63652e-06
-6.12637e-05
-7.28645e-05
0.00186871
0.00188814
-4.93385e-05
-6.41584e-05
2.01654e-14
2.122e-14
2.24124e-14
2.35806e-14
2.44515e-14
1.39267e-14
-4.6901e-13
-1.87133e-11
-6.31573e-10
-1.86842e-08
-4.75483e-07
-1.0129e-05
-0.000173709
-0.00225795
-0.0200208
-0.0961562
-0.0961361
-0.0200048
-0.00242501
1.70208e-15
-2.37386e-15
-7.87629e-15
-1.43166e-14
-2.21945e-14
-5.38712e-14
-1.06669e-12
-4.01323e-11
-1.39508e-09
-4.26386e-08
-1.12176e-06
-2.47204e-05
-0.000438883
-0.00590983
-0.054303
-0.269826
-0.269843
-0.0543465
-0.00635197
-2.84013e-13
-3.09482e-13
-3.40513e-13
-3.73649e-13
-4.08877e-13
-4.63499e-13
-1.33685e-12
-3.59621e-11
-1.30609e-09
-4.2061e-08
-1.16226e-06
-2.68205e-05
-0.000497276
-0.00697553
-0.0665933
-0.342317
-0.34242
-0.0667458
-0.00750145
-8.01615e-13
-8.12534e-13
-8.19179e-13
-8.18943e-13
-8.0973e-13
-7.55887e-13
6.82336e-13
5.007e-11
1.57618e-09
4.25266e-08
9.73618e-07
1.83335e-05
0.000271341
0.0029426
0.0207281
0.0743522
0.0741521
0.0204942
0.00315227
1.70739e-12
2.01853e-12
2.41098e-12
2.84707e-12
3.32893e-12
4.01429e-12
1.13749e-11
2.67419e-10
8.83249e-09
2.60873e-07
6.63823e-06
0.000141536
0.00243185
0.0317018
0.282194
1.36164
1.3614
0.282026
0.0340506
1.52097e-11
1.61377e-11
1.72145e-11
1.83105e-11
1.9413e-11
2.08448e-11
3.66591e-11
6.01529e-10
1.98258e-08
5.95421e-07
1.54242e-05
0.000335022
0.00586809
0.0780329
0.708847
3.48769
3.48753
0.708938
0.0838225
1.76187e-11
1.595e-11
1.36645e-11
1.0892e-11
7.60852e-12
4.28144e-12
2.26797e-11
8.98659e-10
3.11722e-08
9.45192e-07
2.46889e-05
0.000540789
0.00955374
0.128153
1.17431
5.8255
5.82547
1.17475
0.137653
-1.47551e-10
-1.63204e-10
-1.8206e-10
-2.02265e-10
-2.23649e-10
-2.45546e-10
-2.40758e-10
8.35794e-10
3.88173e-08
1.19107e-06
3.12563e-05
0.000687706
0.0122043
0.164457
1.51385
7.54208
7.54215
1.51456
0.17663
-5.88855e-10
-6.05572e-10
-6.22636e-10
-6.36985e-10
-6.47793e-10
-6.53755e-10
-6.2496e-10
5.671e-10
4.16673e-08
1.28981e-06
3.39192e-05
0.00074777
0.0132968
0.179543
1.65606
8.26634
8.26644
1.65687
0.192817
3.39914e-10
4.8984e-10
6.7461e-10
8.80945e-10
1.10904e-09
1.36058e-09
1.66585e-09
3.15574e-09
4.46621e-08
1.2963e-06
3.40193e-05
0.000750153
0.0133437
0.18024
1.6631
8.30429
8.30439
1.66389
0.193559
7.78349e-09
8.32091e-09
8.93722e-09
9.56821e-09
1.0205e-08
1.08432e-08
1.15062e-08
1.33039e-08
5.45692e-08
1.2903e-06
3.3583e-05
0.000740105
0.0131612
0.177726
1.63946
8.18418
8.18427
1.64023
0.19086
1.41212e-08
1.35465e-08
1.27661e-08
1.17717e-08
1.05396e-08
9.0482e-09
7.30375e-09
6.39566e-09
4.45249e-08
1.27307e-06
3.34578e-05
0.000737607
0.0131155
0.177086
1.63334
8.15266
8.15275
1.63412
0.190175
-5.70423e-08
-6.4509e-08
-7.3206e-08
-8.25015e-08
-9.23547e-08
-1.02753e-07
-1.1365e-07
-1.23905e-07
-9.51899e-08
1.12612e-06
3.33635e-05
0.000738894
0.0131418
0.177451
1.63678
8.17016
8.17025
1.63756
0.190566
-2.82881e-07
-2.91868e-07
-3.01098e-07
-3.09103e-07
-3.15515e-07
-3.20043e-07
-3.22351e-07
-3.20996e-07
-2.77321e-07
9.63096e-07
3.3237e-05
0.000739115
0.0131479
0.177539
1.63762
8.1745
8.17459
1.6384
0.190661
4.05822e-08
1.08221e-07
1.88088e-07
2.77319e-07
3.76294e-07
4.85402e-07
6.04984e-07
7.36382e-07
9.18028e-07
2.30366e-06
3.47203e-05
0.00074054
0.0131457
0.177485
1.6371
8.1718
8.17189
1.63788
0.190605
3.22013e-06
3.46297e-06
3.72939e-06
3.99921e-06
4.26882e-06
4.53524e-06
4.79535e-06
5.0469e-06
5.32468e-06
6.77876e-06
3.92333e-05
0.00074508
0.0131508
0.1775
1.63722
8.17246
8.17255
1.638
0.190619
5.91586e-06
5.59469e-06
5.18281e-06
4.6675e-06
4.04111e-06
3.2983e-06
2.43472e-06
1.44796e-06
3.73599e-07
3.632e-07
3.12361e-05
0.000735206
0.0131353
0.177431
1.6367
8.17008
8.17017
1.63747
0.19053
-2.51975e-05
-2.87955e-05
-3.26986e-05
-3.67453e-05
-4.09081e-05
-4.5163e-05
-4.94868e-05
-5.38556e-05
-5.82091e-05
-6.13727e-05
-3.35265e-05
0.000667094
0.013051
0.177158
1.63472
8.16045
8.16053
1.63547
0.190217
-0.000115561
-0.000118147
-0.000120301
-0.000121727
-0.000122415
-0.000122368
-0.000121591
-0.000120087
-0.000117826
-0.000113658
-7.77963e-05
0.000635871
0.0130292
0.176993
1.63287
8.15031
8.15042
1.63369
0.190188
9.2745e-05
0.000120492
0.000148981
0.000177785
0.000206909
0.000236345
0.000266084
0.000296118
0.000326477
0.000358306
0.000421631
0.00135552
0.0139966
0.178614
1.63842
8.171
8.17111
1.63928
0.192101
0.00148307
0.00151568
0.00155095
0.0015863
0.00162167
0.00165707
0.00169248
0.00172792
0.00176342
0.00180014
0.00186834
0.00280371
0.0155763
0.18214
1.65967
8.27034
8.27046
1.66064
0.195883
0.00291047
0.0029403
0.002975
0.00300987
0.00304473
0.00307959
0.00311443
0.00314926
0.00318413
0.00322019
0.00328808
0.00422331
0.017206
0.187009
1.69513
8.44519
8.44538
1.69633
0.201192
0.0043008
0.0043276
0.00436123
0.00439521
0.00442917
0.0044631
0.00449699
0.00453085
0.0045647
0.00459972
0.00466653
0.00559172
0.0186092
0.189352
1.70868
8.51894
8.51923
1.71005
0.203669
0.00563073
0.00565346
0.00568439
0.00571581
0.00574715
0.00577837
0.00580947
0.00584045
0.00587134
0.00590327
0.00596559
0.00684346
0.0192008
0.181112
1.62309
8.10398
8.10428
1.62409
0.194207
0.00680805
0.00682403
0.00684859
0.00687367
0.00689856
0.00692322
0.00694764
0.00697182
0.00699579
0.00702059
0.00707229
0.00784132
0.0183728
0.154691
1.36415
6.81918
6.81925
1.36371
0.164218
0.00767429
0.00768046
0.00769446
0.00770896
0.0077232
0.00773713
0.00775077
0.0077641
0.00777716
0.00779085
0.00782626
0.00843146
0.0160728
0.111169
0.940611
4.69618
4.69574
0.937669
0.114926
0.00808966
0.00808539
0.00808754
0.00809019
0.00809266
0.00809491
0.00809693
0.00809875
0.00810038
0.00810259
0.00812124
0.0085542
0.0131031
0.0636111
0.478053
2.36122
2.36018
0.472306
0.0611243
0.0080519
0.00804082
0.00803479
0.00802927
0.00802366
0.00801794
0.00801208
0.00800608
0.00799995
0.00799436
0.00800147
0.00830931
0.0106357
0.0288478
0.140306
0.646397
0.644918
0.132506
0.0218471
0.00770519
0.00768944
0.00767738
0.00766541
0.00765306
0.00764029
0.00762711
0.00761353
0.00759957
0.00758587
0.00758313
0.00782647
0.00922253
0.014
-0.00158111
-0.0775602
-0.0792248
-0.0102689
0.00505643
0.00706608
0.00703491
0.00700678
0.00697896
0.00695104
0.00692299
0.00689481
0.0068665
0.0068381
0.00681025
0.00679354
0.00691907
0.00816864
0.0122425
-0.00976159
-0.116657
-0.118319
-0.0184949
0.00309759
0.00584268
0.00581059
0.00578032
0.00575046
0.00572066
0.00569087
0.0056611
0.00563136
0.00560167
0.00557267
0.00555537
0.00568942
0.00710968
0.0135063
0.0126342
0.00221603
0.000578939
0.00397236
0.00461165
0.00465718
0.00462795
0.00459922
0.00457081
0.00454246
0.00451413
0.00448584
0.00445758
0.00442939
0.00440191
0.00438643
0.00452725
0.00601833
0.013131
0.0177614
0.0327302
0.0310772
0.00898581
0.00417948
0.00353545
0.00350893
0.00348172
0.00345472
0.00342777
0.00340087
0.00337401
0.0033472
0.00332046
0.00329445
0.00328049
0.00342283
0.00490547
0.0117603
0.0133407
0.014252
0.0125936
0.00450101
0.00273518
0.00248134
0.00245799
0.00243312
0.00240835
0.00238368
0.00235909
0.00233459
0.00231017
0.00228587
0.0022623
0.00225015
0.00238589
0.00379036
0.0102465
0.011051
0.00863401
0.00706917
0.0026661
0.00169298
0.00154174
0.00152282
0.00150208
0.0014814
0.00146086
0.00144046
0.00142019
0.00140006
0.0013801
0.00136083
0.00135113
0.0014654
0.00264868
0.00814191
0.00932175
0.00960034
0.00829474
0.00228804
0.000979766
0.000792653
0.000779495
0.000764768
0.000750106
0.00073561
0.000721283
0.000707126
0.000693138
0.000679336
0.000666068
0.000659399
0.000737589
0.0015503
0.00533741
0.00612847
0.00622514
0.00533251
0.00129351
0.00041935
0.000296405
0.000289261
0.000281161
0.000273128
0.000265242
0.000257504
0.000249915
0.000242472
0.000235183
0.000228218
0.000224582
0.000263291
0.000669913
0.00257187
0.0029245
0.00276624
0.00232098
0.000498375
0.000106101
5.17951e-05
4.92692e-05
4.63823e-05
4.35455e-05
4.07955e-05
3.8133e-05
3.55564e-05
3.30641e-05
3.06566e-05
2.83773e-05
2.70234e-05
3.70529e-05
0.000146634
0.000665764
0.000777377
0.000810282
0.000690805
0.000120378
-1.02975e-06
-1.69152e-05
-1.71354e-05
-1.73882e-05
-1.76198e-05
-1.78239e-05
-1.80011e-05
-1.81524e-05
-1.82788e-05
-1.83815e-05
-1.84687e-05
-1.86616e-05
-2.04934e-05
-3.64799e-05
-0.000108962
-0.000125826
-0.000134551
-0.000117175
-3.31264e-05
-1.46079e-05
-1.18133e-05
-1.15482e-05
-1.12435e-05
-1.09371e-05
-1.06324e-05
-1.03296e-05
-1.00291e-05
-9.73099e-06
-9.43597e-06
-9.15369e-06
-9.05076e-06
-1.12994e-05
-3.41383e-05
-0.00014127
-0.000162153
-0.000158312
-0.000133509
-2.62027e-05
-3.27515e-06
-2.02862e-07
-1.13305e-07
-1.05441e-08
8.95629e-08
1.85441e-07
2.7706e-07
3.64497e-07
4.47835e-07
5.27121e-07
6.01573e-07
6.55526e-07
4.77102e-07
-1.77011e-06
-1.27517e-05
-1.49491e-05
-1.5102e-05
-1.26619e-05
-1.18265e-06
1.18167e-06
1.44318e-06
1.42004e-06
1.39324e-06
1.36583e-06
1.33806e-06
1.30999e-06
1.28165e-06
1.25309e-06
1.22441e-06
1.19698e-06
1.19411e-06
1.52036e-06
4.73853e-06
1.98278e-05
2.28375e-05
2.26251e-05
1.91465e-05
3.73222e-06
4.46056e-07
1.01009e-08
-6.329e-10
-1.29591e-08
-2.49788e-08
-3.65007e-08
-4.75193e-08
-5.80428e-08
-6.80797e-08
-7.76354e-08
-8.66298e-08
-9.34313e-08
-7.56988e-08
1.62558e-07
1.34236e-06
1.56772e-06
1.5453e-06
1.28687e-06
9.36691e-08
-1.48049e-07
-1.72181e-07
-1.68433e-07
-1.64099e-07
-1.59725e-07
-1.55359e-07
-1.51007e-07
-1.46673e-07
-1.42362e-07
-1.38085e-07
-1.3404e-07
-1.33682e-07
-1.82421e-07
-6.64798e-07
-2.93852e-06
-3.38877e-06
-3.35098e-06
-2.83136e-06
-5.18219e-07
-2.87996e-08
3.39327e-08
3.43416e-08
3.48076e-08
3.52362e-08
3.56167e-08
3.59494e-08
3.62358e-08
3.64775e-08
3.66773e-08
3.68703e-08
3.76462e-08
4.6666e-08
1.28088e-07
5.05344e-07
5.809e-07
5.74479e-07
4.87124e-07
1.03192e-07
2.07971e-08
9.47524e-09
8.97207e-09
8.39275e-09
7.81975e-09
7.26104e-09
6.71702e-09
6.18762e-09
5.67277e-09
5.17299e-09
4.70245e-09
4.51746e-09
8.0296e-09
4.44715e-08
2.1854e-07
2.52698e-07
2.50009e-07
2.10825e-07
3.38948e-08
-2.99966e-09
-7.39232e-09
-7.24062e-09
-7.06626e-09
-6.89143e-09
-6.71801e-09
-6.54616e-09
-6.37592e-09
-6.20737e-09
-6.041e-09
-5.88715e-09
-5.92911e-09
-8.59031e-09
-3.45063e-08
-1.57027e-07
-1.8123e-07
-1.79308e-07
-1.51529e-07
-2.69975e-08
-8.18899e-10
2.44098e-09
2.41529e-09
2.38608e-09
2.35645e-09
2.32661e-09
2.29656e-09
2.26631e-09
2.2359e-09
2.20549e-09
2.17858e-09
2.21724e-09
3.14127e-09
1.19239e-08
5.33199e-08
6.15123e-08
6.08655e-08
5.14718e-08
9.40664e-09
5.50331e-10
-5.6319e-10
-5.61074e-10
-5.58803e-10
-5.5645e-10
-5.5399e-10
-5.51421e-10
-5.48743e-10
-5.45961e-10
-5.43113e-10
-5.41043e-10
-5.54711e-10
-7.8172e-10
-2.90267e-09
-1.28826e-08
-1.48595e-08
-1.47047e-08
-1.24406e-08
-2.30218e-09
-1.66874e-10
1.02657e-10
1.02849e-10
1.03119e-10
1.03384e-10
1.03629e-10
1.03852e-10
1.04054e-10
1.04234e-10
1.044e-10
1.04713e-10
1.08042e-10
1.52303e-10
5.60034e-10
2.47633e-09
2.85617e-09
2.82669e-09
2.39223e-09
4.46058e-10
3.61945e-11
-1.56682e-11
-1.57787e-11
-1.59168e-11
-1.60566e-11
-1.61945e-11
-1.633e-11
-1.64631e-11
-1.65937e-11
-1.6723e-11
-1.68769e-11
-1.75188e-11
-2.47732e-11
-9.07583e-11
-4.00582e-10
-4.62023e-10
-4.57302e-10
-3.87115e-10
-7.25557e-11
-6.32569e-12
1.67726e-12
1.69616e-12
1.71947e-12
1.74326e-12
1.76702e-12
1.7907e-12
1.81428e-12
1.83778e-12
1.86129e-12
1.88776e-12
1.96932e-12
2.7957e-12
1.02388e-11
4.51647e-11
5.20926e-11
5.15648e-11
4.36594e-11
8.20869e-12
7.4744e-13
)
;

boundaryField
{
    top
    {
        type            zeroGradient;
    }
    left
    {
        type            fixedValue;
        value           uniform 0;
    }
    bottom
    {
        type            zeroGradient;
    }
    right
    {
        type            zeroGradient;
    }
    frontAndBack
    {
        type            empty;
    }
}


// ************************************************************************* //
