/*--------------------------------*- C++ -*----------------------------------*\
| =========                 |                                                 |
| \\      /  F ield         | OpenFOAM: The Open Source CFD Toolbox           |
|  \\    /   O peration     | Version:  v1806                                 |
|   \\  /    A nd           | Web:      www.OpenFOAM.com                      |
|    \\/     M anipulation  |                                                 |
\*---------------------------------------------------------------------------*/
FoamFile
{
    version     2.0;
    format      ascii;
    class       volScalarField;
    location    "0.03";
    object      T;
}
// * * * * * * * * * * * * * * * * * * * * * * * * * * * * * * * * * * * * * //

dimensions      [0 0 0 1 0 0 0];


internalField   nonuniform List<scalar> 
1881
(
8.07068e-129
3.54152e-127
1.48524e-125
5.80124e-124
2.09807e-122
6.97768e-121
2.11669e-119
5.79941e-118
1.41785e-116
3.04624e-115
5.63861e-114
8.7543e-113
1.09739e-111
1.04767e-110
6.88982e-110
2.52731e-109
2.51182e-109
6.69327e-110
1.09432e-110
1.29947e-126
5.71796e-125
2.40448e-123
9.41719e-122
3.41506e-120
1.13886e-118
3.46418e-117
9.51727e-116
2.33317e-114
5.02653e-113
9.32963e-112
1.45245e-110
1.82566e-109
1.74764e-108
1.15231e-107
4.23682e-107
4.21165e-107
1.12042e-107
1.82796e-108
2.07493e-124
9.1552e-123
3.86026e-121
1.51596e-119
5.51239e-118
1.84328e-116
5.62211e-115
1.54879e-113
3.80723e-112
8.22463e-111
1.53073e-109
2.38955e-108
3.01172e-107
2.89074e-106
1.911e-105
7.0428e-105
7.00228e-105
1.85973e-105
3.02769e-106
3.2648e-122
1.44449e-120
6.10711e-119
2.40483e-117
8.76825e-116
2.93997e-114
8.99156e-113
2.48378e-111
6.12233e-110
1.32621e-108
2.47503e-107
3.87423e-106
4.89626e-105
4.71224e-104
3.12329e-103
1.15377e-102
1.14734e-102
3.04211e-103
4.94209e-104
5.06056e-120
2.24519e-118
9.51807e-117
3.75816e-115
1.374e-113
4.61955e-112
1.4167e-110
3.92414e-109
9.69924e-108
2.1068e-106
3.94261e-105
6.18839e-104
7.84227e-103
7.5679e-102
5.02919e-101
1.8622e-100
1.85217e-100
4.90263e-101
7.94752e-102
7.72487e-118
3.43673e-116
1.4609e-114
5.78401e-113
2.12043e-111
7.14865e-110
2.19832e-108
6.1059e-107
1.51334e-105
3.29622e-104
6.18544e-103
9.7355e-102
1.23711e-100
1.19707e-99
7.97595e-99
2.9603e-98
2.94488e-98
7.78175e-99
1.25875e-99
1.1609e-115
5.17909e-114
2.20755e-112
8.76402e-111
3.2217e-109
1.08912e-107
3.35843e-106
9.35382e-105
2.32473e-103
5.0775e-102
9.55438e-101
1.50795e-99
1.92145e-98
1.8643e-97
1.24544e-96
4.63348e-96
4.61017e-96
1.21613e-96
1.96289e-97
1.71699e-113
7.68123e-112
3.28302e-110
1.30693e-108
4.81755e-107
1.63309e-105
5.04972e-104
1.41032e-102
3.5148e-101
7.69804e-100
1.45256e-98
2.29888e-97
2.93734e-96
2.85774e-95
1.91416e-94
7.1383e-94
7.10362e-94
1.87064e-94
3.01267e-95
2.49835e-111
1.12079e-109
4.80349e-108
1.91747e-106
7.08754e-105
2.40922e-103
7.4702e-102
2.09211e-100
5.22842e-99
1.1483e-97
2.17276e-96
3.44825e-95
4.41808e-94
4.3101e-93
2.89464e-92
1.08205e-91
1.07698e-91
2.83112e-92
4.54946e-93
3.57516e-109
1.60835e-107
6.91201e-106
2.76676e-104
1.0255e-102
3.49556e-101
1.08686e-99
3.05233e-98
7.64935e-97
1.68467e-95
3.19656e-94
5.08716e-93
6.53599e-92
6.39372e-91
4.30543e-90
1.61327e-89
1.60598e-89
4.21431e-90
6.75711e-91
5.0296e-107
2.269e-105
9.77806e-104
3.9248e-102
1.45876e-100
4.98617e-99
1.55464e-97
4.3782e-96
1.10027e-94
2.42997e-93
4.62359e-92
7.37874e-91
9.50656e-90
9.32519e-89
6.2962e-88
2.36489e-87
2.35461e-87
6.16783e-88
9.86714e-89
6.95335e-105
3.14569e-103
1.35935e-101
5.47138e-100
2.03923e-98
6.98969e-97
2.1854e-95
6.17174e-94
1.55533e-92
3.44462e-91
6.57255e-90
1.05184e-88
1.35894e-87
1.33669e-86
9.04924e-86
3.40715e-85
3.39289e-85
8.87164e-86
1.41606e-86
9.44281e-103
4.28395e-101
1.85636e-99
7.49261e-98
2.80033e-96
9.62523e-95
3.01784e-93
8.5465e-92
2.15984e-90
4.79686e-89
9.17844e-88
1.473e-86
1.90837e-85
1.88231e-84
1.27773e-83
4.82245e-83
4.80304e-83
1.25362e-83
1.99643e-84
1.25913e-100
5.72847e-99
2.48921e-97
1.00749e-95
3.77596e-94
1.3015e-92
4.09208e-91
1.16213e-89
2.94515e-88
6.55942e-87
1.25863e-85
2.02559e-84
2.63165e-83
2.60292e-82
1.77164e-81
6.70281e-81
6.67691e-81
1.73953e-81
2.76391e-82
1.6478e-98
7.51804e-97
3.27594e-95
1.32961e-93
4.9972e-92
1.72726e-90
5.44603e-89
1.551e-87
3.94175e-86
8.80384e-85
1.69407e-83
2.73406e-82
3.56208e-81
3.53298e-80
2.41118e-79
9.14462e-79
9.11072e-79
2.36924e-79
3.75576e-80
2.11548e-96
9.67921e-95
4.22944e-93
1.72142e-91
6.48793e-90
2.24884e-88
7.11054e-87
2.03077e-85
5.17565e-84
1.15925e-82
2.23699e-81
3.6205e-80
4.73028e-79
4.70472e-78
3.21957e-77
1.22403e-76
1.21968e-76
3.16589e-77
5.00697e-78
2.66297e-94
1.22189e-92
5.35416e-91
2.18531e-89
8.25951e-88
2.87098e-86
9.10334e-85
2.60728e-83
6.66382e-82
1.49681e-80
2.89659e-79
4.70135e-78
6.1598e-77
6.14366e-76
4.21571e-75
1.60668e-74
1.60121e-74
4.14843e-75
6.54551e-76
3.28518e-92
1.5117e-90
6.64266e-89
2.71886e-87
1.03051e-85
3.59215e-84
1.14223e-82
3.28075e-81
8.40899e-80
1.89419e-78
3.67603e-77
5.98342e-76
7.86182e-75
7.86323e-74
5.41038e-73
2.06705e-72
2.06033e-72
5.32782e-73
8.38655e-74
3.96968e-90
1.83191e-88
8.07241e-87
3.31339e-85
1.2594e-83
4.4025e-82
1.40389e-80
4.04378e-79
1.03943e-77
2.34808e-76
4.56993e-75
7.45965e-74
9.82937e-73
9.85879e-72
6.80201e-71
2.60514e-70
2.59704e-70
6.7029e-71
1.0526e-71
4.69583e-88
2.17324e-86
9.60355e-85
3.95302e-83
1.50679e-81
5.28229e-80
1.68925e-78
4.87963e-77
1.25787e-75
2.84969e-74
5.56207e-73
9.10515e-72
1.20318e-70
1.21019e-69
8.37254e-69
3.21458e-68
3.20504e-68
8.25624e-69
1.29342e-69
5.4347e-86
2.52244e-84
1.11783e-82
4.61427e-81
1.76385e-79
6.2011e-78
1.98875e-76
5.76126e-75
1.4894e-73
3.38391e-72
6.62377e-71
1.08743e-69
1.44107e-68
1.45357e-67
1.0084e-66
3.8813e-66
3.87033e-66
9.95067e-67
1.55511e-67
6.15004e-84
2.8627e-82
1.27222e-80
5.26655e-79
2.01894e-77
7.11823e-76
2.28943e-74
6.65136e-73
1.72446e-71
3.92927e-70
7.71344e-69
1.26997e-67
1.68781e-66
1.70728e-65
1.18768e-64
4.58271e-64
4.57039e-64
1.17275e-64
1.82834e-65
6.80044e-82
3.17462e-80
1.41486e-78
5.87377e-77
2.25817e-75
7.98453e-74
2.57544e-72
7.50388e-71
1.95111e-69
4.45854e-68
8.77776e-67
1.44938e-65
1.93178e-64
1.95964e-63
1.36701e-62
5.28785e-62
5.27435e-62
1.35071e-62
2.10062e-63
7.34271e-80
3.43773e-78
1.5365e-76
6.39702e-75
2.4664e-73
8.7459e-72
2.82917e-70
8.26697e-69
2.15575e-67
4.94045e-66
9.75473e-65
1.61536e-63
2.15923e-62
2.19662e-61
1.53658e-60
5.95868e-60
5.94425e-60
1.51923e-60
2.35686e-61
7.7361e-78
3.63246e-76
1.62819e-74
6.79824e-73
2.62864e-71
9.34812e-70
3.03273e-68
8.88748e-67
2.32428e-65
5.34219e-64
1.05786e-62
1.75689e-61
2.3552e-60
2.40285e-59
1.68554e-58
6.55273e-58
6.5377e-58
1.66754e-58
2.58051e-59
7.94701e-76
3.7424e-74
1.68229e-72
7.04436e-71
2.73167e-69
9.74266e-68
3.1699e-66
9.31647e-65
2.44357e-63
5.63275e-62
1.11865e-60
1.86327e-59
2.50506e-58
2.56309e-57
1.80296e-56
7.02693e-56
7.0117e-56
1.7848e-56
2.75504e-57
7.95336e-74
3.75636e-72
1.69343e-70
7.11152e-69
2.7657e-67
9.89269e-66
3.22808e-64
9.51514e-63
2.50297e-61
5.78655e-60
1.15256e-58
1.92536e-57
2.59607e-56
2.66387e-55
1.87911e-54
7.34226e-54
7.32723e-54
1.8613e-54
2.86586e-55
7.74803e-72
3.67014e-70
1.65934e-68
6.98856e-67
2.72578e-65
9.77828e-64
3.20006e-62
9.46015e-61
2.4958e-59
5.78689e-58
1.15601e-56
1.93678e-55
2.61911e-54
2.69528e-53
1.90662e-52
7.46866e-52
7.45427e-52
1.88965e-52
2.90209e-53
7.3406e-70
3.48739e-68
1.58129e-66
6.67918e-65
2.6127e-63
9.40001e-62
3.08527e-60
9.14756e-59
2.42042e-57
5.62864e-56
1.12771e-54
1.89492e-53
2.57001e-52
2.65242e-51
1.8816e-50
7.38942e-50
7.37604e-50
1.86591e-50
2.85828e-51
6.75695e-68
3.21959e-66
1.46411e-64
6.20225e-63
2.43323e-61
8.77995e-60
2.89022e-58
8.59445e-57
2.28077e-55
5.31954e-54
1.06893e-52
1.80145e-51
2.45042e-50
2.53635e-49
1.80435e-48
7.10418e-48
7.09212e-48
1.79031e-48
2.73536e-49
6.03673e-66
2.88494e-64
1.31575e-62
5.59008e-61
2.19949e-59
7.95987e-58
2.62798e-56
7.8377e-55
2.0861e-53
4.87989e-52
9.83488e-51
1.66236e-49
2.26789e-48
2.35427e-47
1.67958e-46
6.62989e-46
6.61936e-46
1.66741e-46
2.54094e-47
5.22887e-64
2.50629e-62
1.1464e-60
4.88485e-59
1.92766e-57
6.99668e-56
2.3168e-54
6.9301e-53
1.85e-51
4.34044e-50
8.77366e-49
1.48739e-47
2.03518e-46
2.11889e-45
1.51596e-44
5.99941e-44
5.99053e-44
1.50576e-44
2.28858e-45
4.38587e-62
2.10849e-60
9.67271e-59
4.1337e-57
1.63605e-55
5.95579e-54
1.97797e-52
5.93415e-51
1.58884e-49
3.73881e-48
7.58006e-47
1.28886e-45
1.76877e-44
1.84693e-43
1.32516e-42
5.25788e-42
5.25064e-42
1.31692e-42
1.99626e-43
3.55793e-60
1.71557e-58
7.89335e-57
3.38323e-55
1.34299e-53
4.90342e-52
1.63331e-50
4.9147e-49
1.31981e-47
3.11502e-46
6.33426e-45
1.08025e-43
1.48689e-42
1.55717e-41
1.12046e-40
4.45722e-40
4.45152e-40
1.11405e-40
1.68422e-41
2.78767e-58
1.3482e-56
6.22135e-55
2.67447e-53
1.06479e-51
3.89924e-50
1.30269e-48
3.93156e-47
1.05896e-45
2.50683e-44
5.11281e-43
8.74555e-42
1.20736e-40
1.26816e-39
9.1513e-39
3.64987e-38
3.64555e-38
9.10331e-39
1.37253e-39
2.10645e-56
1.0218e-54
4.72913e-53
2.03901e-51
8.1421e-50
2.99051e-48
1.00208e-46
3.03337e-45
8.19481e-44
1.94576e-42
3.98041e-41
6.82901e-40
9.45593e-39
9.96156e-38
7.20922e-37
2.8828e-36
2.87966e-36
7.17474e-37
1.07881e-37
1.53264e-54
7.45696e-53
3.46148e-51
1.4969e-49
5.99516e-48
2.20855e-46
7.42274e-45
2.25367e-43
6.10672e-42
1.45434e-40
2.98408e-39
5.13508e-38
7.13174e-37
7.53543e-36
5.46921e-35
2.19273e-34
2.19054e-34
5.44549e-35
8.16555e-36
1.0719e-52
5.23105e-51
2.43545e-49
1.05634e-47
4.24336e-46
1.56789e-44
5.28539e-43
1.60957e-41
4.37458e-40
1.04497e-38
2.15061e-37
3.712e-36
5.17085e-35
5.47984e-34
3.98881e-33
1.60341e-32
1.60194e-32
3.97323e-33
5.94143e-34
7.1926e-51
3.52074e-49
1.64407e-47
7.1522e-46
2.88169e-44
1.06797e-42
3.611e-41
1.10298e-39
3.00683e-38
7.2043e-37
1.48718e-35
2.57469e-34
3.59741e-33
3.82378e-32
2.79146e-31
1.12506e-30
1.12412e-30
2.78171e-31
4.14809e-32
4.62105e-49
2.26886e-47
1.06265e-45
4.63674e-44
1.87381e-42
6.96538e-41
2.36224e-39
7.23736e-38
1.97896e-36
4.75596e-35
9.8476e-34
1.71005e-32
2.39656e-31
2.55501e-30
1.87068e-29
7.55943e-29
7.55375e-29
1.86489e-29
2.77311e-30
2.83624e-47
1.39679e-45
6.5617e-44
2.87173e-42
1.16403e-40
4.34007e-39
1.47636e-37
4.53697e-36
1.24435e-34
2.99962e-33
6.22991e-32
1.08513e-30
1.52539e-29
1.63113e-28
1.19775e-27
4.85298e-27
4.8497e-27
1.1945e-27
1.77121e-28
1.65888e-45
8.19463e-44
3.86118e-42
1.69495e-40
6.89113e-39
2.57714e-37
8.79329e-36
2.71049e-34
7.45674e-33
1.80302e-31
3.75614e-30
6.56251e-29
9.25312e-28
9.92447e-27
7.30904e-26
2.96932e-25
2.96752e-25
7.29184e-26
1.07815e-26
9.2207e-44
4.56886e-42
2.15927e-40
9.5073e-39
3.8771e-37
1.45437e-35
4.9775e-34
1.53898e-32
4.24681e-31
1.03002e-29
2.15237e-28
3.77204e-27
5.33482e-26
5.73922e-25
4.23921e-24
1.72679e-23
1.72587e-23
4.23069e-24
6.23735e-25
4.85579e-42
2.41344e-40
1.14406e-38
5.05261e-37
2.06674e-35
7.77637e-34
2.66956e-32
8.27927e-31
2.29168e-29
5.57531e-28
1.16863e-26
2.05433e-25
2.91437e-24
3.14482e-23
2.32976e-22
9.51542e-22
9.51094e-22
2.32584e-22
3.41905e-23
2.41442e-40
1.20373e-38
5.72344e-37
2.53538e-35
1.04025e-33
3.92605e-32
1.35192e-30
4.20567e-29
1.16771e-27
2.84962e-26
5.99149e-25
1.05649e-23
1.5034e-22
1.62722e-21
1.20906e-20
4.95145e-20
4.94941e-20
1.2074e-20
1.76971e-21
1.12913e-38
5.64674e-37
2.69307e-35
1.19663e-33
4.92471e-32
1.86436e-30
6.43958e-29
2.00946e-27
5.59653e-26
1.36998e-24
2.88939e-23
5.11068e-22
7.29498e-21
7.91993e-20
5.90223e-19
2.42365e-18
2.42279e-18
5.89582e-19
8.61611e-20
4.94466e-37
2.48048e-35
1.18662e-33
5.28869e-32
2.18324e-30
8.29059e-29
2.87245e-27
8.99116e-26
2.51188e-24
6.16793e-23
1.3049e-21
2.31524e-20
3.315e-19
3.61003e-18
2.69837e-17
1.11104e-16
1.1107e-16
2.69616e-17
3.92842e-18
2.01744e-35
1.01519e-33
4.87136e-32
2.17781e-30
9.01796e-29
3.43503e-27
1.19382e-25
3.74842e-24
1.05046e-22
2.58743e-21
5.49107e-20
9.77297e-19
1.40365e-17
1.53327e-16
1.1495e-15
4.74585e-15
4.74465e-15
1.14885e-15
1.66889e-16
7.62424e-34
3.84853e-32
1.85237e-30
8.30678e-29
3.45032e-27
1.31833e-25
4.59597e-24
1.44755e-22
4.06926e-21
1.00545e-19
2.14044e-18
3.82143e-17
5.50565e-16
6.03262e-15
4.5363e-14
1.87796e-13
1.87757e-13
4.53477e-14
6.5675e-15
2.6506e-32
1.34214e-30
6.47985e-29
2.91479e-27
1.21444e-25
4.65464e-24
1.62775e-22
5.14278e-21
1.45022e-19
3.59447e-18
7.67601e-17
1.37473e-15
1.98679e-14
2.18371e-13
1.64708e-12
6.83701e-12
6.83587e-12
1.64687e-12
2.3777e-13
8.40826e-31
4.27087e-29
2.06834e-27
9.33267e-26
3.90049e-24
1.49961e-22
5.26057e-21
1.66724e-19
4.71619e-18
1.17261e-16
2.51197e-15
4.51291e-14
6.54263e-13
7.21383e-12
5.45931e-11
2.27168e-10
2.27138e-10
5.45964e-11
7.85558e-12
2.40997e-29
1.22795e-27
5.96524e-26
2.69995e-24
1.13193e-22
4.36544e-21
1.53616e-19
4.88383e-18
1.38585e-16
3.45652e-15
7.42792e-14
1.33868e-12
1.94695e-11
2.15423e-10
1.63923e-09
6.8247e-09
6.82404e-09
1.6396e-09
2.34595e-10
6.16602e-28
3.15165e-26
1.53577e-24
6.9727e-23
2.93233e-21
1.13443e-19
4.00446e-18
1.27711e-16
3.63535e-15
9.0957e-14
1.9608e-12
3.54507e-11
5.1738e-10
5.75795e-09
4.48138e-08
1.83927e-07
1.83914e-07
4.48295e-08
6.26877e-09
1.38695e-26
7.11145e-25
3.47609e-23
1.58312e-21
6.67848e-20
2.59177e-18
9.17747e-17
2.93609e-15
8.38402e-14
2.10432e-12
4.5508e-11
8.25538e-10
1.21083e-08
1.37568e-07
1.29742e-06
4.58077e-06
4.58058e-06
1.2978e-06
1.49448e-07
2.68895e-25
1.38307e-23
6.78142e-22
3.09808e-20
1.31102e-18
5.10367e-17
1.81288e-15
5.81804e-14
1.66658e-12
4.19622e-11
9.10429e-10
1.65822e-08
2.46147e-07
3.13288e-06
0.000143311
0.000210406
0.000210404
0.000143321
3.37575e-06
4.37491e-24
2.25731e-22
1.11023e-20
5.08778e-19
2.1597e-17
8.43379e-16
3.00514e-14
9.67463e-13
2.78003e-11
7.02201e-10
1.52871e-08
2.7997e-07
4.27475e-06
6.79241e-05
0.00247057
0.00362975
0.00362974
0.00247081
7.21809e-05
5.75106e-23
2.97663e-21
1.46852e-19
6.7505e-18
2.87439e-16
1.12595e-14
4.02451e-13
1.29968e-11
3.74637e-10
9.49272e-09
2.07311e-07
3.80462e-06
5.70823e-05
0.000707019
0.00891105
0.0246597
0.0246598
0.00891461
0.000763993
5.76462e-22
2.99285e-20
1.481e-18
6.82864e-17
2.91654e-15
1.14597e-13
4.10865e-12
1.33094e-10
3.84833e-09
9.78103e-08
2.14229e-06
3.93786e-05
0.000586001
0.00673188
0.0567125
0.221433
0.221434
0.0567514
0.00731745
3.99215e-21
2.07878e-19
1.03169e-17
4.77093e-16
2.04369e-14
8.05381e-13
2.8961e-11
9.40938e-10
2.72876e-08
6.95607e-07
1.52794e-05
0.000281532
0.00418934
0.0475441
0.374082
1.56618
1.56619
0.374366
0.0517329
1.56105e-20
8.14962e-19
4.05493e-17
1.87993e-15
8.07357e-14
3.18982e-12
1.15e-10
3.746e-09
1.08917e-07
2.78368e-06
6.13021e-05
0.00113229
0.0168811
0.191536
1.49434
6.34051
6.34058
1.49548
0.208416
1.90195e-20
9.92608e-19
4.93723e-17
2.28823e-15
9.82381e-14
3.88004e-12
1.39836e-10
4.55348e-09
1.32351e-07
3.38148e-06
7.44438e-05
0.00137464
0.0204893
0.232406
1.81165
7.68525
7.68533
1.81303
0.252895
1.95362e-20
1.01946e-18
5.07023e-17
2.34961e-15
1.00862e-13
3.98323e-12
1.4354e-10
4.67359e-09
1.3583e-07
3.47013e-06
7.63927e-05
0.00141066
0.021028
0.238544
1.85934
7.88202
7.88209
1.86075
0.259572
1.95891e-20
1.0222e-18
5.08377e-17
2.35585e-15
1.01129e-13
3.99373e-12
1.43918e-10
4.68598e-09
1.36194e-07
3.47965e-06
7.66101e-05
0.00141489
0.0210954
0.239355
1.86561
7.90303
7.90311
1.86703
0.26045
1.95934e-20
1.02243e-18
5.08495e-17
2.35642e-15
1.01155e-13
3.99487e-12
1.43965e-10
4.68775e-09
1.36256e-07
3.48162e-06
7.66649e-05
0.00141617
0.0211186
0.23965
1.86771
7.90643
7.9065
1.86912
0.260769
1.95947e-20
1.02252e-18
5.0855e-17
2.35675e-15
1.01173e-13
3.9958e-12
1.44008e-10
4.6896e-09
1.36326e-07
3.48391e-06
7.67281e-05
0.00141758
0.0211428
0.239935
1.86951
7.90856
7.90863
1.87093
0.261078
1.95984e-20
1.02275e-18
5.08689e-17
2.35753e-15
1.01214e-13
3.99775e-12
1.44093e-10
4.69293e-09
1.36441e-07
3.48735e-06
7.6815e-05
0.00141936
0.0211706
0.240231
1.87123
7.91055
7.91062
1.87265
0.261402
1.96095e-20
1.0234e-18
5.09054e-17
2.35944e-15
1.01306e-13
4.00182e-12
1.44257e-10
4.69881e-09
1.36628e-07
3.49249e-06
7.69341e-05
0.0014216
0.0212026
0.240546
1.87292
7.91251
7.91258
1.87434
0.261749
1.96391e-20
1.02504e-18
5.09913e-17
2.36362e-15
1.01494e-13
4.00959e-12
1.44547e-10
4.70853e-09
1.36915e-07
3.49982e-06
7.70916e-05
0.00142434
0.0212389
0.240877
1.87457
7.91446
7.91453
1.87599
0.262116
1.97021e-20
1.02834e-18
5.11559e-17
2.37123e-15
1.01818e-13
4.02221e-12
1.44992e-10
4.72258e-09
1.37305e-07
3.50919e-06
7.72806e-05
0.00142742
0.0212772
0.241204
1.87611
7.91629
7.91636
1.87754
0.262482
1.97831e-20
1.03243e-18
5.13522e-17
2.37997e-15
1.02176e-13
4.03561e-12
1.45446e-10
4.73629e-09
1.3767e-07
3.51757e-06
7.74421e-05
0.00142994
0.0213071
0.241448
1.87722
7.9176
7.91767
1.87865
0.262755
1.98045e-20
1.03351e-18
5.14036e-17
2.38224e-15
1.02268e-13
4.03903e-12
1.45561e-10
4.73974e-09
1.37761e-07
3.51964e-06
7.74815e-05
0.00143054
0.0213142
0.241505
1.87747
7.91791
7.91798
1.8789
0.26282
1.98076e-20
1.03367e-18
5.14109e-17
2.38256e-15
1.02281e-13
4.03951e-12
1.45577e-10
4.74022e-09
1.37774e-07
3.51992e-06
7.74869e-05
0.00143062
0.0213152
0.241513
1.87751
7.91795
7.91802
1.87894
0.262828
1.98079e-20
1.03368e-18
5.14116e-17
2.38259e-15
1.02283e-13
4.03956e-12
1.45578e-10
4.74026e-09
1.37775e-07
3.51995e-06
7.74874e-05
0.00143063
0.0213152
0.241514
1.87751
7.91795
7.91803
1.87894
0.262829
1.9808e-20
1.03368e-18
5.14117e-17
2.38259e-15
1.02283e-13
4.03956e-12
1.45578e-10
4.74027e-09
1.37775e-07
3.51995e-06
7.74874e-05
0.00143063
0.0213152
0.241514
1.87751
7.91795
7.91802
1.87894
0.262829
1.98084e-20
1.0337e-18
5.14123e-17
2.38261e-15
1.02283e-13
4.03957e-12
1.45578e-10
4.74025e-09
1.37774e-07
3.51992e-06
7.74868e-05
0.00143062
0.021315
0.241509
1.87696
7.91734
7.91741
1.87839
0.262824
1.98149e-20
1.03396e-18
5.14222e-17
2.38293e-15
1.02291e-13
4.03969e-12
1.45576e-10
4.74e-09
1.37763e-07
3.51952e-06
7.74763e-05
0.0014304
0.0213112
0.241439
1.87465
7.91392
7.914
1.87608
0.262749
1.99003e-20
1.03746e-18
5.15524e-17
2.38711e-15
1.02398e-13
4.04131e-12
1.45551e-10
4.73677e-09
1.37608e-07
3.51426e-06
7.73363e-05
0.00142746
0.0212628
0.240813
1.86824
7.89292
7.89299
1.86965
0.262051
2.0743e-20
1.07207e-18
5.28487e-17
2.42897e-15
1.03478e-13
4.05818e-12
1.45322e-10
4.70511e-09
1.36072e-07
3.46156e-06
7.59299e-05
0.00139785
0.0207799
0.234983
1.82069
7.69639
7.69641
1.82186
0.255497
2.63446e-20
1.30311e-18
6.15418e-17
2.71135e-15
1.10827e-13
4.17592e-12
1.43934e-10
4.49584e-09
1.25792e-07
3.10642e-06
6.6405e-05
0.00119661
0.0174953
0.195548
1.50498
6.3533
6.35304
1.50457
0.21112
4.55769e-20
2.09946e-18
9.16379e-17
3.69434e-15
1.36627e-13
4.59888e-12
1.39609e-10
3.78157e-09
9.02619e-08
1.87098e-06
3.31128e-05
0.000490523
0.00593402
0.0564662
0.390617
1.58485
1.58357
0.384601
0.0545874
5.11707e-20
2.33025e-18
1.00324e-16
3.97657e-15
1.43975e-13
4.71671e-12
1.38225e-10
3.57246e-09
7.99836e-08
1.51578e-06
2.35822e-05
0.000289071
0.00264427
0.0169747
0.0749671
0.241773
0.240207
0.0673723
0.0101479
5.20109e-20
2.36477e-18
1.01618e-16
4.01838e-15
1.45053e-13
4.73355e-12
1.37995e-10
3.54068e-09
7.84402e-08
1.46269e-06
2.21602e-05
0.000258984
0.00215131
0.0110316
0.0275259
0.0452514
0.0436445
0.0197006
0.00347082
5.20958e-20
2.36825e-18
1.01747e-16
4.02251e-15
1.45158e-13
4.73503e-12
1.37961e-10
3.53701e-09
7.82651e-08
1.4566e-06
2.19924e-05
0.000255287
0.00208778
0.0102362
0.0212837
0.0242596
0.0226485
0.0134349
0.00258824
5.21019e-20
2.36848e-18
1.01755e-16
4.02271e-15
1.45158e-13
4.73472e-12
1.37938e-10
3.53577e-09
7.82124e-08
1.45474e-06
2.19379e-05
0.000253992
0.00206416
0.0099377
0.0191957
0.0208653
0.0192538
0.0113442
0.00226439
5.21003e-20
2.36838e-18
1.01748e-16
4.02231e-15
1.45137e-13
4.73363e-12
1.37887e-10
3.53366e-09
7.81344e-08
1.45224e-06
2.187e-05
0.000252497
0.00203904
0.00964815
0.0173925
0.0187381
0.0171264
0.00953946
0.00194971
5.20851e-20
2.36762e-18
1.01711e-16
4.02058e-15
1.4506e-13
4.73045e-12
1.37763e-10
3.52925e-09
7.79927e-08
1.44823e-06
2.17732e-05
0.000250587
0.00201011
0.00934626
0.0156777
0.0167501
0.0151387
0.00782419
0.00162062
5.19329e-20
2.36058e-18
1.01401e-16
4.00791e-15
1.44581e-13
4.71374e-12
1.37232e-10
3.51391e-09
7.75958e-08
1.43916e-06
2.15946e-05
0.000247664
0.00197265
0.00900839
0.0139738
0.014763
0.0131554
0.00613695
0.00126881
5.05362e-20
2.2971e-18
9.86716e-17
3.89972e-15
1.40659e-13
4.58486e-12
1.33434e-10
3.41488e-09
7.53489e-08
1.39575e-06
2.09009e-05
0.000238861
0.00188923
0.00847519
0.012092
0.0125883
0.0110205
0.00444651
0.000892815
4.14507e-20
1.88456e-18
8.09666e-17
3.20046e-15
1.15448e-13
3.76314e-12
1.09509e-10
2.80187e-09
6.17924e-08
1.14364e-06
1.70995e-05
0.000194875
0.0015326
0.00677404
0.0089495
0.00916852
0.00787529
0.00263986
0.000493002
1.05298e-20
4.77581e-19
2.04691e-17
8.07138e-16
2.90434e-14
9.44331e-13
2.74103e-11
6.99491e-10
1.53855e-08
2.83968e-07
4.23365e-06
4.80995e-05
0.000376932
0.00165772
0.00215757
0.00220294
0.00188403
0.00060456
0.0001107
1.50884e-21
6.82448e-20
2.91699e-18
1.14705e-16
4.11595e-15
1.3345e-13
3.86251e-12
9.82837e-11
2.15545e-09
3.96645e-08
5.89561e-07
6.67728e-06
5.21554e-05
0.000228529
0.000295546
0.000301313
0.000257149
8.09467e-05
1.46965e-05
1.49307e-22
6.73395e-21
2.8702e-19
1.12545e-17
4.02685e-16
1.30184e-14
3.75693e-13
9.53148e-12
2.08409e-10
3.82356e-09
5.66585e-08
6.39715e-07
4.98093e-06
2.17534e-05
2.8027e-05
2.8548e-05
2.4329e-05
7.57238e-06
1.36843e-06
1.12621e-23
5.06484e-22
2.15266e-20
8.4168e-19
3.00284e-17
9.67959e-16
2.78519e-14
7.04517e-13
1.53584e-11
2.80919e-10
4.15003e-09
4.67126e-08
3.62586e-07
1.57865e-06
2.02857e-06
2.06492e-06
1.75779e-06
5.42851e-07
9.78152e-08
6.86184e-25
3.07709e-23
1.30413e-21
5.08451e-20
1.80876e-18
5.81356e-17
1.66788e-15
4.20643e-14
9.14258e-13
1.66723e-11
2.45553e-10
2.7555e-09
2.13231e-08
9.2562e-08
1.18699e-07
1.20764e-07
1.02703e-07
3.15289e-08
5.6699e-09
3.50769e-26
1.56849e-24
6.62882e-23
2.57709e-21
9.14143e-20
2.92965e-18
8.38047e-17
2.10735e-15
4.56669e-14
8.30282e-13
1.21917e-11
1.36398e-10
1.05232e-09
4.55483e-09
5.83115e-09
5.92995e-09
5.03872e-09
1.53938e-09
2.7644e-10
1.54515e-27
6.88965e-26
2.90358e-24
1.12564e-22
3.98147e-21
1.27231e-19
3.62899e-18
9.09876e-17
1.96592e-15
3.56367e-14
5.21721e-13
5.81938e-12
4.47635e-11
1.93204e-10
2.46984e-10
2.51071e-10
2.13167e-10
6.48587e-11
1.16352e-11
5.98262e-29
2.66007e-27
1.11794e-25
4.32178e-24
1.52432e-22
4.85721e-21
1.38142e-19
3.45351e-18
7.43996e-17
1.34469e-15
1.9628e-14
2.18285e-13
1.67414e-12
7.2057e-12
9.1996e-12
9.34856e-12
7.93125e-12
2.4046e-12
4.31036e-13
2.06729e-30
9.1661e-29
3.84159e-27
1.48096e-25
5.20878e-24
1.65506e-22
4.69365e-21
1.17002e-19
2.51328e-18
4.52922e-17
6.59173e-16
7.30919e-15
5.58951e-14
2.39921e-13
3.05955e-13
3.10809e-13
2.63499e-13
7.96358e-14
1.42669e-14
6.2691e-32
2.77217e-30
1.15876e-28
4.45514e-27
1.56272e-25
4.95193e-24
1.40048e-22
3.48142e-21
7.45746e-20
1.34014e-18
1.94491e-17
2.15051e-16
1.63995e-15
7.02082e-15
8.94394e-15
9.08317e-15
7.69545e-15
2.31931e-15
4.15336e-16
)
;

boundaryField
{
    top
    {
        type            zeroGradient;
    }
    left
    {
        type            fixedValue;
        value           uniform 0;
    }
    bottom
    {
        type            zeroGradient;
    }
    right
    {
        type            zeroGradient;
    }
    frontAndBack
    {
        type            empty;
    }
}


// ************************************************************************* //
