/*--------------------------------*- C++ -*----------------------------------*\
| =========                 |                                                 |
| \\      /  F ield         | OpenFOAM: The Open Source CFD Toolbox           |
|  \\    /   O peration     | Version:  v1806                                 |
|   \\  /    A nd           | Web:      www.OpenFOAM.com                      |
|    \\/     M anipulation  |                                                 |
\*---------------------------------------------------------------------------*/
FoamFile
{
    version     2.0;
    format      ascii;
    class       volScalarField;
    location    "0.03";
    object      T;
}
// * * * * * * * * * * * * * * * * * * * * * * * * * * * * * * * * * * * * * //

dimensions      [0 0 0 1 0 0 0];


internalField   nonuniform List<scalar> 
1881
(
-4.00163e-43
-5.77027e-43
-6.1874e-42
-2.84099e-40
-1.30453e-38
-5.4385e-37
-2.04072e-35
-6.83321e-34
-2.01887e-32
-5.1859e-31
-1.13566e-29
-2.06398e-28
-2.99532e-27
-3.27064e-26
-2.42459e-25
-9.8065e-25
-9.79838e-25
-2.41675e-25
-3.55101e-26
-2.455e-42
-2.2246e-42
1.73077e-41
8.0146e-40
2.85344e-38
8.82345e-37
2.28022e-35
4.4692e-34
4.41371e-33
-1.03667e-31
-6.93716e-30
-2.11064e-28
-4.32231e-27
-6.14574e-26
-5.65791e-25
-2.7292e-24
-2.73933e-24
-5.79023e-25
-6.93648e-26
4.55353e-42
8.56049e-42
1.41711e-40
6.29794e-39
2.71301e-37
1.06599e-35
3.78353e-34
1.20095e-32
3.36666e-31
8.20367e-30
1.70181e-28
2.92189e-27
3.98895e-26
4.07299e-25
2.80248e-24
1.04722e-23
1.04399e-23
2.76462e-24
4.37182e-25
8.22027e-41
9.27009e-41
1.61779e-40
5.3238e-39
3.33052e-37
1.72728e-35
7.62403e-34
2.90577e-32
9.57115e-31
2.7037e-29
6.45187e-28
1.27004e-26
1.98867e-25
2.33759e-24
1.86225e-23
8.05319e-23
8.06097e-23
1.87374e-23
2.56811e-24
1.47028e-40
9.75706e-41
-2.04949e-39
-9.44193e-38
-3.74416e-36
-1.34267e-34
-4.30999e-33
-1.22063e-31
-2.99139e-30
-6.17235e-29
-1.02787e-27
-1.28028e-26
-9.89125e-26
-9.77093e-26
6.85883e-24
5.80654e-23
5.88334e-23
7.82746e-24
6.38807e-26
-1.7073e-39
-2.13473e-39
-1.01285e-38
-3.85982e-37
-1.73374e-35
-7.1256e-34
-2.6427e-32
-8.76306e-31
-2.56806e-29
-6.55205e-28
-1.42684e-26
-2.58149e-25
-3.73317e-24
-4.06582e-23
-3.00914e-22
-1.21625e-21
-1.21529e-21
-2.99985e-22
-4.41479e-23
-9.42766e-39
-9.90573e-39
1.71293e-39
4.02357e-37
9.87306e-36
7.9894e-35
-8.14549e-33
-6.15612e-31
-2.77357e-29
-9.49151e-28
-2.59019e-26
-5.64512e-25
-9.59173e-24
-1.20706e-22
-1.01926e-21
-4.62438e-21
-4.63391e-21
-1.03213e-21
-1.33773e-22
1.35121e-38
2.15328e-38
1.93411e-37
7.66646e-36
3.17929e-34
1.20623e-32
4.13345e-31
1.26544e-29
3.41494e-28
7.98589e-27
1.5825e-25
2.57773e-24
3.30476e-23
3.12046e-22
1.93988e-21
6.36437e-21
6.32164e-21
1.88813e-21
3.31158e-22
2.84098e-37
3.23942e-37
6.74034e-37
1.7164e-35
8.15168e-34
3.56085e-32
1.39352e-30
4.85046e-29
1.48677e-27
3.95834e-26
8.98293e-25
1.69271e-23
2.54986e-22
2.89468e-21
2.23475e-20
9.40734e-20
9.40967e-20
2.23968e-20
3.16274e-21
5.78008e-37
5.35724e-37
-1.17825e-36
-6.95323e-35
-2.56352e-33
-8.32281e-32
-2.33497e-30
-5.41146e-29
-9.33337e-28
-7.58866e-27
1.85791e-25
9.79052e-24
2.37347e-22
3.67474e-21
3.56545e-20
1.78066e-19
1.78775e-19
3.65748e-20
4.15971e-21
-5.17067e-36
-6.21872e-36
-1.73181e-35
-4.83591e-34
-2.05168e-32
-8.07633e-31
-2.8781e-29
-9.18934e-28
-2.59646e-26
-6.39132e-25
-1.34286e-23
-2.34252e-22
-3.26177e-21
-3.41335e-20
-2.42125e-19
-9.37527e-19
-9.35835e-19
-2.40223e-19
-3.68745e-20
-3.06792e-35
-3.32665e-35
-4.09509e-35
-4.21663e-34
-2.33707e-32
-1.18242e-30
-5.15085e-29
-1.94826e-27
-6.39064e-26
-1.80216e-24
-4.30121e-23
-8.4815e-22
-1.33219e-20
-1.57275e-19
-1.25977e-18
-5.48076e-18
-5.48613e-18
-1.2676e-18
-1.72665e-19
2.60845e-35
4.08716e-35
1.92643e-34
5.99319e-33
2.34872e-31
8.45609e-30
2.73415e-28
7.82969e-27
1.95107e-25
4.13029e-24
7.17332e-23
9.66399e-22
9.06607e-21
4.31354e-20
-1.10639e-19
-2.16808e-18
-2.20714e-18
-1.59593e-19
3.89612e-20
8.08757e-34
9.13979e-34
1.51448e-33
2.46833e-32
1.05138e-30
4.27362e-29
1.57292e-27
5.18715e-26
1.51467e-24
3.8575e-23
8.39975e-22
1.5222e-20
2.20877e-19
2.41819e-18
1.80245e-17
7.34696e-17
7.34325e-17
1.79936e-17
2.62967e-18
1.96128e-33
1.97546e-33
1.49184e-33
-1.11677e-32
-1.72057e-31
8.21074e-30
8.27512e-28
4.37566e-26
1.74239e-24
5.59938e-23
1.47149e-21
3.12893e-20
5.22775e-19
6.50276e-18
5.44798e-17
2.45985e-16
2.46403e-16
5.50489e-17
7.17623e-18
-1.23379e-32
-1.45667e-32
-2.54407e-32
-3.86937e-31
-1.51468e-29
-5.6956e-28
-1.93931e-26
-5.90629e-25
-1.58743e-23
-3.70165e-22
-7.32396e-21
-1.19299e-19
-1.53241e-18
-1.45356e-17
-9.11317e-17
-3.03207e-16
-3.01544e-16
-8.91307e-17
-1.55181e-17
-8.32046e-32
-9.04752e-32
-1.16724e-31
-1.03199e-30
-4.31274e-29
-1.81561e-27
-6.90981e-26
-2.35143e-24
-7.07567e-23
-1.85545e-21
-4.1587e-20
-7.75796e-19
-1.15933e-17
-1.30809e-16
-1.0055e-15
-4.22191e-15
-4.22255e-15
-1.00716e-15
-1.42769e-16
1.25199e-32
3.70622e-32
1.25627e-31
2.19529e-30
7.17879e-29
2.12694e-27
5.12619e-26
8.45404e-25
8.73235e-25
-5.72689e-22
-2.53816e-20
-6.96712e-19
-1.36341e-17
-1.8928e-16
-1.72003e-15
-8.24445e-15
-8.26688e-15
-1.74951e-15
-2.10777e-16
1.85879e-30
2.08571e-30
2.76255e-30
2.08531e-29
7.72359e-28
2.97844e-26
1.04474e-24
3.28779e-23
9.16618e-22
2.22833e-20
4.62726e-19
7.98248e-18
1.09965e-16
1.1388e-15
7.99549e-15
3.0662e-14
3.06072e-14
7.93368e-15
1.23113e-15
5.53571e-30
5.72228e-30
6.34686e-30
3.39042e-29
1.39315e-27
6.15989e-26
2.44621e-24
8.63833e-23
2.68668e-21
7.26119e-20
1.67395e-18
3.20723e-17
4.91764e-16
5.68916e-15
4.48066e-14
1.92372e-13
1.92483e-13
4.49828e-14
6.22415e-15
-2.21217e-29
-2.6164e-29
-3.49916e-29
-1.77579e-28
-5.36622e-27
-1.83112e-25
-5.59678e-24
-1.4908e-22
-3.3587e-21
-6.08156e-20
-7.90117e-19
-4.56119e-18
7.86238e-17
2.50085e-15
3.1293e-14
1.77974e-13
1.78909e-13
3.24867e-14
2.90192e-15
-1.83876e-28
-1.99791e-28
-2.34804e-28
-9.87704e-28
-3.25757e-26
-1.27617e-24
-4.56886e-23
-1.46928e-21
-4.19189e-20
-1.04474e-18
-2.22922e-17
-3.96282e-16
-5.64551e-15
-6.07249e-14
-4.45014e-13
-1.78628e-12
-1.78493e-12
-4.43697e-13
-6.59553e-14
-1.15134e-28
-8.30904e-29
-3.94004e-29
-5.58194e-28
-3.34209e-26
-1.62773e-24
-6.9065e-23
-2.56838e-21
-8.33361e-20
-2.33464e-18
-5.55348e-17
-1.09428e-15
-1.72133e-14
-2.03909e-13
-1.64159e-12
-7.1855e-12
-7.19189e-12
-1.6509e-12
-2.23458e-13
3.34835e-27
3.75336e-27
4.43916e-27
1.15855e-26
2.71972e-25
9.64473e-24
3.14086e-22
9.10415e-21
2.31041e-19
5.02668e-18
9.10926e-17
1.31805e-15
1.42238e-14
1.00575e-13
3.26609e-13
-3.46713e-13
-3.7835e-13
2.87405e-13
1.03998e-13
1.2549e-26
1.31397e-26
1.42732e-26
4.04797e-26
1.16491e-24
4.61034e-23
1.6752e-21
5.47037e-20
1.58574e-18
4.01858e-17
8.72725e-16
1.5809e-14
2.29821e-13
2.52663e-12
1.89549e-11
7.78984e-11
7.78768e-11
1.89433e-11
2.7505e-12
-2.68196e-26
-3.26996e-26
-4.10302e-26
-4.51415e-26
4.65319e-25
3.17333e-23
1.52915e-21
6.17858e-20
2.12881e-18
6.24598e-17
1.5422e-15
3.1351e-14
5.06583e-13
6.14449e-12
5.05145e-11
2.25068e-10
2.25321e-10
5.08699e-11
6.74122e-12
-3.21612e-25
-3.49895e-25
-3.91104e-25
-6.78557e-25
-1.08207e-23
-3.84536e-22
-1.28845e-20
-3.86812e-19
-1.02514e-17
-2.35701e-16
-4.59594e-15
-7.36911e-14
-9.29654e-13
-8.62492e-12
-5.24986e-11
-1.67661e-10
-1.6677e-10
-5.14299e-11
-9.25152e-12
-4.70721e-25
-4.46625e-25
-4.16531e-25
-1.13636e-24
-3.56942e-23
-1.43418e-21
-5.26415e-20
-1.73651e-18
-5.08657e-17
-1.30311e-15
-2.86239e-14
-5.24768e-13
-7.72635e-12
-8.60957e-11
-6.5511e-10
-2.73003e-09
-2.72995e-09
-6.55527e-10
-9.38287e-11
4.5166e-24
5.09365e-24
5.87216e-24
6.87749e-24
5.32328e-24
-4.15835e-22
-2.69413e-20
-1.24625e-18
-4.65827e-17
-1.44458e-15
-3.71519e-14
-7.79606e-13
-1.29264e-11
-1.60217e-10
-1.34167e-09
-6.06886e-09
-6.07657e-09
-1.35233e-09
-1.75863e-10
2.2106e-23
2.33614e-23
2.49708e-23
3.41402e-23
3.53626e-22
1.22741e-20
4.16917e-19
1.27327e-17
3.44374e-16
8.11393e-15
1.63029e-13
2.71423e-12
3.59476e-11
3.5595e-10
2.37204e-09
8.57963e-09
8.55825e-09
2.34727e-09
3.84604e-10
-1.43022e-23
-2.06438e-23
-2.93275e-23
-1.89225e-23
9.10325e-22
3.90647e-20
1.44236e-18
4.77972e-17
1.40696e-15
3.62375e-14
8.00614e-13
1.47705e-11
2.18961e-10
2.45795e-09
1.88497e-08
7.91628e-08
7.91694e-08
1.88726e-08
2.67981e-09
-4.2902e-22
-4.68618e-22
-5.19478e-22
-5.81136e-22
-7.16006e-22
4.37545e-21
4.77273e-19
2.49505e-17
9.90288e-16
3.18499e-14
8.39821e-13
1.79529e-11
3.02054e-10
3.78915e-09
3.20549e-08
1.46207e-07
1.46395e-07
3.23135e-08
4.15718e-09
-1.0253e-21
-1.03308e-21
-1.0313e-21
-1.20852e-21
-9.3528e-21
-3.17296e-19
-1.08323e-17
-3.33066e-16
-9.08248e-15
-2.16135e-13
-4.39565e-12
-7.42805e-11
-1.00218e-09
-1.01582e-08
-6.97355e-08
-2.61448e-07
-2.61e-07
-6.92325e-08
-1.10063e-08
4.20385e-21
4.82985e-21
5.66142e-21
6.09857e-21
-1.56742e-20
-9.36797e-19
-3.47597e-17
-1.15007e-15
-3.38155e-14
-8.70502e-13
-1.92342e-11
-3.5509e-10
-5.27046e-09
-5.92697e-08
-4.55582e-07
-1.91829e-06
-1.91849e-06
-4.56177e-07
-6.46153e-08
2.92587e-20
3.11573e-20
3.34501e-20
3.58842e-20
3.71208e-20
-1.76096e-19
-1.3936e-17
-6.51018e-16
-2.44508e-14
-7.61221e-13
-1.96494e-11
-4.13864e-10
-6.88887e-09
-8.57367e-08
-7.21082e-07
-3.27562e-06
-3.2793e-06
-7.26191e-07
-9.39119e-08
1.70896e-20
1.25662e-20
5.89438e-21
1.72689e-21
1.60541e-19
6.47921e-18
2.22069e-16
6.81624e-15
1.85587e-13
4.4115e-12
8.96621e-11
1.51502e-09
2.04513e-08
2.07561e-07
1.42799e-06
5.37007e-06
5.36179e-06
1.41879e-06
2.2512e-07
-4.15631e-19
-4.57637e-19
-5.11532e-19
-5.59634e-19
-1.35456e-19
1.93078e-17
7.28464e-16
2.39298e-14
6.98679e-13
1.78736e-11
3.92747e-10
7.21551e-09
1.06646e-07
1.195e-06
9.15827e-06
3.84761e-05
3.84781e-05
9.16765e-06
1.30232e-06
-1.46148e-18
-1.50939e-18
-1.55757e-18
-1.59412e-18
-1.40517e-18
1.00101e-17
5.20347e-16
2.02114e-14
6.77611e-13
1.9523e-11
4.76296e-10
9.61004e-09
1.54652e-07
1.87335e-06
1.54154e-05
6.88601e-05
6.8916e-05
1.54962e-05
2.0475e-06
2.17826e-18
2.6714e-18
3.33799e-18
4.03766e-18
2.28589e-18
-9.34603e-17
-3.34355e-15
-1.01412e-13
-2.72052e-12
-6.36152e-11
-1.26932e-09
-2.0998e-08
-2.76474e-07
-2.72287e-06
-1.8055e-05
-6.50204e-05
-6.48878e-05
-1.79041e-05
-2.95235e-06
2.80563e-17
3.01004e-17
3.26186e-17
3.5075e-17
2.90853e-17
-3.12442e-16
-1.26562e-14
-4.1142e-13
-1.18701e-11
-3.00262e-10
-6.52828e-09
-1.18745e-07
-1.73862e-06
-1.931e-05
-0.000146777
-0.000612268
-0.000612235
-0.000146845
-2.10342e-05
4.6855e-17
4.53222e-17
4.26394e-17
3.88099e-17
2.51696e-17
-3.67465e-16
-1.54462e-14
-5.40827e-13
-1.67445e-11
-4.52517e-10
-1.04723e-08
-2.02132e-07
-3.13236e-06
-3.67335e-05
-0.000294009
-0.0012842
-0.00128481
-0.000294975
-4.0074e-05
-2.72867e-16
-3.05643e-16
-3.47953e-16
-3.9399e-16
-4.19882e-16
4.0477e-16
2.86069e-14
8.37311e-13
2.1112e-11
4.56916e-10
8.25497e-09
1.19439e-07
1.2953e-06
9.30857e-06
3.22743e-05
-1.50613e-05
-1.67616e-05
3.01945e-05
9.99741e-06
-1.41181e-15
-1.47738e-15
-1.5527e-15
-1.62366e-15
-1.5759e-15
2.90718e-15
1.63054e-13
5.24924e-12
1.48973e-10
3.70712e-09
7.93094e-08
1.41977e-06
2.04622e-05
0.000223745
0.00167495
0.00689006
0.00688854
0.00167429
0.000243613
-8.72025e-17
1.8368e-16
5.53496e-16
9.88231e-16
1.68193e-15
1.04432e-14
3.12773e-13
1.03049e-11
3.047e-10
7.90329e-09
1.76236e-07
3.28874e-06
4.9418e-05
0.000563459
0.00439669
0.0187948
0.0187983
0.00440417
0.000613975
1.88248e-14
2.03902e-14
2.23329e-14
2.44042e-14
2.65769e-14
2.98493e-14
1.00756e-13
3.35263e-12
1.26416e-10
3.97392e-09
1.03431e-07
2.1951e-06
3.68086e-05
0.000461513
0.0039107
0.0178926
0.0179073
0.00393169
0.000503487
5.12077e-14
5.16664e-14
5.18442e-14
5.15622e-14
4.9874e-14
1.4322e-14
-1.15751e-12
-3.7204e-11
-1.02445e-09
-2.46802e-08
-5.10278e-07
-8.81023e-06
-0.000122176
-0.00128207
-0.00918815
-0.0361983
-0.0361746
-0.00916553
-0.00139529
-1.094e-13
-1.2819e-13
-1.52266e-13
-1.79025e-13
-2.10721e-13
-3.41587e-13
-3.90435e-12
-1.17173e-10
-3.35448e-09
-8.45257e-08
-1.83324e-06
-3.33073e-05
-0.000487756
-0.00542532
-0.0413515
-0.173128
-0.173119
-0.0413704
-0.00590816
-9.30873e-13
-9.82729e-13
-1.04406e-12
-1.10638e-12
-1.17157e-12
-1.37307e-12
-6.60521e-12
-1.77715e-10
-5.21366e-09
-1.35186e-07
-3.01638e-06
-5.63628e-05
-0.000848605
-0.00970075
-0.0759317
-0.325681
-0.325732
-0.0760488
-0.0105648
-1.00031e-12
-8.94235e-13
-7.4923e-13
-5.75317e-13
-3.71351e-13
-1.64434e-13
-1.37464e-12
-6.13593e-11
-2.15034e-09
-6.37948e-08
-1.59384e-06
-3.28243e-05
-0.000538027
-0.00662848
-0.0554101
-0.251
-0.251147
-0.0556301
-0.00721825
8.83208e-12
9.70914e-12
1.07842e-11
1.19346e-11
1.31574e-11
1.48175e-11
2.93838e-11
4.37559e-10
1.15582e-08
2.77615e-07
5.73528e-06
9.90274e-05
0.00137452
0.014451
0.10387
0.410781
0.410554
0.103666
0.0157366
3.33706e-11
3.41294e-11
3.49015e-11
3.55073e-11
3.59246e-11
3.72307e-11
7.83283e-11
1.38756e-09
3.84519e-08
9.58944e-07
2.06114e-05
0.000371348
0.00539586
0.0595899
0.451277
1.87927
1.87905
0.451321
0.0648808
-2.42236e-11
-3.28262e-11
-4.35568e-11
-5.54918e-11
-6.85579e-11
-8.07299e-11
-1.88155e-11
2.45412e-09
7.37298e-08
1.86573e-06
4.06033e-05
0.000740854
0.0109055
0.122041
0.936581
3.94894
3.94881
0.937087
0.132856
-4.39591e-10
-4.67312e-10
-4.9968e-10
-5.32664e-10
-5.65569e-10
-5.95125e-10
-5.15842e-10
3.04877e-09
1.06609e-07
2.72676e-06
5.97298e-05
0.0010969
0.0162526
0.183083
1.41427
5.9992
5.99921
1.41528
0.199277
-7.10848e-10
-6.70998e-10
-6.1827e-10
-5.53319e-10
-4.74795e-10
-3.78007e-10
-1.35987e-10
4.30472e-09
1.29179e-07
3.29509e-06
7.24086e-05
0.00133441
0.0198423
0.224323
1.73899
7.40083
7.40094
1.74035
0.244132
3.37427e-09
3.77576e-09
4.2507e-09
4.75647e-09
5.28945e-09
5.85212e-09
6.57662e-09
1.17714e-08
1.45255e-07
3.52305e-06
7.73664e-05
0.00142785
0.0212653
0.240796
1.86965
7.9686
7.96875
1.87114
0.262038
1.49898e-08
1.53539e-08
1.57241e-08
1.60167e-08
1.62099e-08
1.62916e-08
1.63793e-08
2.07742e-08
1.53535e-07
3.53794e-06
7.75708e-05
0.00143193
0.0213322
0.241625
1.87666
8.00069
8.00083
1.87814
0.262932
-6.69814e-09
-1.05756e-08
-1.51895e-08
-2.02938e-08
-2.58981e-08
-3.20154e-08
-3.85276e-08
-4.11735e-08
8.28106e-08
3.42328e-06
7.6642e-05
0.00141598
0.0210916
0.238852
1.85475
7.90586
7.90599
1.85621
0.259916
-1.7892e-07
-1.90746e-07
-2.03897e-07
-2.17073e-07
-2.30071e-07
-2.42747e-07
-2.54823e-07
-2.6187e-07
-1.41332e-07
3.18633e-06
7.61481e-05
0.00141063
0.0210125
0.23793
1.84737
7.8735
7.87364
1.84882
0.258914
-2.71261e-07
-2.49459e-07
-2.22454e-07
-1.90022e-07
-1.51606e-07
-1.06708e-07
-5.46681e-08
9.32621e-09
2.08349e-07
3.62626e-06
7.67782e-05
0.00141315
0.0210419
0.23826
1.84997
7.88472
7.88486
1.85142
0.259275
1.48638e-06
1.66371e-06
1.86268e-06
2.07238e-06
2.29263e-06
2.52322e-06
2.76355e-06
3.01667e-06
3.40357e-06
7.00761e-06
8.03874e-05
0.00141789
0.0210615
0.238449
1.85145
7.8912
7.89133
1.85291
0.25948
5.84626e-06
5.93465e-06
6.00832e-06
6.04275e-06
6.03054e-06
5.9594e-06
5.81833e-06
5.60156e-06
5.42265e-06
8.35831e-06
8.09494e-05
0.00141732
0.0210563
0.238404
1.85112
7.88982
7.88995
1.85258
0.259425
-5.63111e-06
-7.47049e-06
-9.64398e-06
-1.21331e-05
-1.49176e-05
-1.79702e-05
-2.12636e-05
-2.47672e-05
-2.83326e-05
-2.88501e-05
4.0236e-05
0.00137276
0.0210031
0.238291
1.8506
7.88788
7.88801
1.85205
0.25929
-7.57194e-05
-8.1127e-05
-8.72866e-05
-9.38922e-05
-9.97345e-05
-0.000104816
-0.000109138
-0.0001127
-0.000115383
-0.000114108
-4.2391e-05
0.00129269
0.0209119
0.238027
1.84901
7.88137
7.88151
1.85047
0.259042
-8.42929e-05
-6.37346e-05
-3.7807e-05
-1.14543e-05
1.52882e-05
4.24065e-05
6.98904e-05
9.77336e-05
0.000126048
0.000157905
0.000259718
0.00162306
0.0212467
0.238087
1.8467
7.86987
7.87003
1.84823
0.259387
0.000849643
0.00107757
0.0013079
0.00134274
0.00137762
0.00141252
0.00144744
0.00148239
0.00151748
0.00155579
0.0016638
0.00303388
0.022674
0.239607
1.8486
7.87216
7.87231
1.85013
0.260927
0.0022782
0.00249541
0.00271603
0.00275004
0.00278402
0.00281796
0.00285188
0.00288577
0.00291976
0.00295695
0.00306421
0.00444192
0.0242177
0.242693
1.86304
7.92761
7.92776
1.86461
0.264208
0.00365481
0.00385853
0.00406767
0.00410045
0.00413323
0.00416599
0.00419872
0.00423145
0.00426428
0.00430036
0.00440742
0.00580351
0.0258918
0.24804
1.89638
8.06571
8.06591
1.89813
0.270051
0.00498358
0.00517427
0.00537222
0.00540413
0.00543605
0.00546795
0.00549983
0.0055317
0.00556367
0.0055989
0.0057059
0.00711923
0.0275152
0.253461
1.93208
8.21939
8.21968
1.93408
0.275994
0.00626726
0.00644476
0.00663095
0.0066614
0.00669184
0.00672222
0.00675253
0.00678278
0.00681309
0.00684656
0.00695073
0.00834293
0.028468
0.251707
1.91289
8.14603
8.1464
1.9149
0.273856
0.00746059
0.00762333
0.00779546
0.00782207
0.00784861
0.00787499
0.00790121
0.00792728
0.00795331
0.00798222
0.0080767
0.00935871
0.0278353
0.232411
1.75551
7.48613
7.48641
1.75679
0.251932
0.00845133
0.00859684
0.00875141
0.0087706
0.00878965
0.00880848
0.0088271
0.00884551
0.00886381
0.00888456
0.00896072
0.0100178
0.0250358
0.189616
1.4107
6.0202
6.02014
1.41018
0.203509
0.0091009
0.00922786
0.00936269
0.00937229
0.00938183
0.0093912
0.0094004
0.00940942
0.00941832
0.00942915
0.00948184
0.0102359
0.0205211
0.129744
0.928343
3.95342
3.95279
0.925178
0.135855
0.0093299
0.009439
0.00955437
0.00955455
0.00955418
0.00955319
0.00955157
0.00954935
0.00954658
0.00954487
0.00957176
0.0100307
0.0157224
0.0708186
0.453131
1.90557
1.90434
0.447298
0.0693048
0.00910115
0.00918051
0.00926152
0.00923693
0.00921209
0.00918694
0.00916149
0.00913574
0.00910978
0.00908488
0.00908041
0.00932928
0.0119267
0.0304353
0.129498
0.50499
0.503331
0.121819
0.0236426
0.00812667
0.0080923
0.00806016
0.00802793
0.00799573
0.00796349
0.00793123
0.00789894
0.00786669
0.00783564
0.00782203
0.00799215
0.00937071
0.0132772
-0.0017456
-0.0633717
-0.0651867
-0.0101449
0.004452
0.00681745
0.00678391
0.00675162
0.00671985
0.00668818
0.00665656
0.00662497
0.00659344
0.00656201
0.00653185
0.00651923
0.00668914
0.00802598
0.0112491
-0.00991947
-0.0966289
-0.098446
-0.018381
0.00230464
0.00556074
0.00553042
0.00550014
0.00547026
0.00544047
0.00541072
0.00538102
0.00535135
0.0053218
0.00529357
0.00528376
0.00547204
0.00704622
0.012844
0.0108217
-0.00297712
-0.00478244
0.00237299
0.00414411
0.00438269
0.00435526
0.00432679
0.00429856
0.00427041
0.00424229
0.00421421
0.00418616
0.00415823
0.00413163
0.00412397
0.00432191
0.00599647
0.0127392
0.0172073
0.0283665
0.0265482
0.0086721
0.00403972
0.00327301
0.00324832
0.00322169
0.00319517
0.00316873
0.00314234
0.00311601
0.00308974
0.0030636
0.00303879
0.00303262
0.00322835
0.00486426
0.0112698
0.0134957
0.0161517
0.0143592
0.00505342
0.00265485
0.00224635
0.00222505
0.00220135
0.00217765
0.00215406
0.00213057
0.00210718
0.00208389
0.00206077
0.00203892
0.00203409
0.00221341
0.00370375
0.00945627
0.0103844
0.00848892
0.00685233
0.00264358
0.00155578
0.00135744
0.00134074
0.00132172
0.00130267
0.00128376
0.001265
0.00124638
0.00122791
0.00120964
0.00119244
0.00118889
0.0013329
0.00253287
0.00720724
0.00827672
0.00798515
0.00667849
0.00206913
0.000882727
0.000676309
0.000665147
0.000652214
0.000639279
0.000626497
0.000613875
0.000601413
0.000589113
0.000577004
0.000565652
0.000563233
0.000657235
0.00144438
0.00453174
0.00533993
0.00556215
0.00470975
0.0012725
0.000393111
0.000244188
0.000238355
0.000231525
0.000224716
0.000218033
0.000211481
0.000205058
0.000198765
0.000192614
0.000186871
0.000185421
0.000230047
0.000607043
0.00208894
0.00242714
0.00234032
0.00193275
0.000472683
0.00010158
3.94831e-05
3.7486e-05
3.51314e-05
3.28045e-05
3.05488e-05
2.83662e-05
2.62556e-05
2.42157e-05
2.22487e-05
2.04209e-05
1.97241e-05
3.09358e-05
0.000128623
0.000516528
0.000604256
0.000580525
0.000475223
9.50664e-05
-5.92466e-07
-1.59634e-05
-1.61217e-05
-1.63092e-05
-1.64808e-05
-1.66301e-05
-1.67571e-05
-1.68627e-05
-1.69477e-05
-1.70136e-05
-1.70727e-05
-1.72901e-05
-1.93946e-05
-3.49358e-05
-9.38314e-05
-0.000104402
-8.82417e-05
-7.14555e-05
-2.5476e-05
-1.33746e-05
-1.10442e-05
-1.08171e-05
-1.05482e-05
-1.02762e-05
-1.00054e-05
-9.73602e-06
-9.4684e-06
-9.20273e-06
-8.94005e-06
-8.69606e-06
-8.698e-06
-1.1398e-05
-3.36816e-05
-0.000121557
-0.000143879
-0.000147901
-0.000123988
-2.87762e-05
-4.65697e-06
-7.03735e-07
-6.15189e-07
-5.10453e-07
-4.07316e-07
-3.07916e-07
-2.12369e-07
-1.20622e-07
-3.26142e-08
5.15935e-08
1.29701e-07
1.66496e-07
-2.26437e-07
-3.77683e-06
-1.80665e-05
-2.10324e-05
-1.92581e-05
-1.54451e-05
-2.361e-06
8.652e-07
1.34367e-06
1.32944e-06
1.31239e-06
1.29452e-06
1.276e-06
1.2569e-06
1.23724e-06
1.21708e-06
1.19657e-06
1.17776e-06
1.19008e-06
1.55064e-06
4.4405e-06
1.57761e-05
1.83951e-05
1.78545e-05
1.47612e-05
3.51158e-06
6.61296e-07
1.89911e-07
1.77089e-07
1.61893e-07
1.4683e-07
1.32199e-07
1.1802e-07
1.04291e-07
9.10112e-08
7.82011e-08
6.63438e-08
6.26692e-08
1.46622e-07
8.74909e-07
3.79691e-06
4.49862e-06
4.5086e-06
3.72982e-06
6.94875e-07
-5.90906e-08
-1.73317e-07
-1.71448e-07
-1.69202e-07
-1.66848e-07
-1.64413e-07
-1.61902e-07
-1.59321e-07
-1.56676e-07
-1.53989e-07
-1.51574e-07
-1.53948e-07
-2.10013e-07
-6.57635e-07
-2.41973e-06
-2.84118e-06
-2.81895e-06
-2.34152e-06
-5.35842e-07
-8.03018e-08
-6.38237e-09
-5.00861e-09
-3.38261e-09
-1.78079e-09
-2.37025e-10
1.24662e-09
2.67083e-09
4.03641e-09
5.34257e-09
6.55818e-09
7.19935e-09
1.85073e-09
-4.81026e-08
-2.52416e-07
-2.99447e-07
-2.94892e-07
-2.415e-07
-3.49287e-08
1.53399e-08
2.22554e-08
2.17918e-08
2.12393e-08
2.06791e-08
2.01199e-08
1.95629e-08
1.90084e-08
1.84571e-08
1.79121e-08
1.74227e-08
1.77139e-08
2.66931e-08
9.94e-08
3.87624e-07
4.55783e-07
4.50645e-07
3.7327e-07
7.98761e-08
6.47608e-09
-5.03828e-09
-5.07069e-09
-5.10839e-09
-5.14189e-09
-5.16975e-09
-5.192e-09
-5.20881e-09
-5.22039e-09
-5.22746e-09
-5.24009e-09
-5.40313e-09
-7.28242e-09
-2.16792e-08
-7.80305e-08
-9.14732e-08
-9.04583e-08
-7.51802e-08
-1.77923e-08
-3.28286e-09
-8.99453e-10
-8.39484e-10
-7.68418e-10
-6.97886e-10
-6.29276e-10
-5.62681e-10
-4.98088e-10
-4.35479e-10
-3.74981e-10
-3.19359e-10
-3.10319e-10
-8.0953e-10
-5.07718e-09
-2.22724e-08
-2.62948e-08
-2.60177e-08
-2.14793e-08
-3.98631e-09
3.18648e-10
9.45809e-10
9.24667e-10
8.99632e-10
8.74467e-10
8.49584e-10
8.25014e-10
8.00764e-10
7.76843e-10
7.5339e-10
7.32912e-10
7.52564e-10
1.21984e-09
4.98644e-09
1.99721e-08
2.3507e-08
2.3258e-08
1.92638e-08
4.01708e-09
2.25184e-10
-3.55738e-10
-3.51322e-10
-3.46126e-10
-3.40859e-10
-3.35587e-10
-3.30317e-10
-3.25049e-10
-3.19788e-10
-3.14587e-10
-3.10399e-10
-3.21307e-10
-5.01544e-10
-1.92889e-09
-7.59081e-09
-8.92886e-09
-8.83489e-09
-7.32382e-09
-1.56435e-09
-1.29336e-10
9.25864e-11
9.20089e-11
9.13443e-11
9.06646e-11
8.99727e-11
8.92688e-11
8.8553e-11
8.78264e-11
8.71031e-11
8.66383e-11
9.02087e-11
1.39159e-10
5.22309e-10
2.03986e-09
2.39881e-09
2.37375e-09
1.96872e-09
4.25383e-10
4.06392e-11
-1.92916e-11
-1.92701e-11
-1.92515e-11
-1.92316e-11
-1.92086e-11
-1.91823e-11
-1.91525e-11
-1.91196e-11
-1.90865e-11
-1.91085e-11
-2.00054e-11
-3.07502e-11
-1.14022e-10
-4.43461e-10
-5.21433e-10
-5.16031e-10
-4.28131e-10
-9.31842e-11
-9.66803e-12
2.63517e-12
2.64245e-12
2.65239e-12
2.66245e-12
2.67215e-12
2.68142e-12
2.69025e-12
2.69867e-12
2.70708e-12
2.72335e-12
2.86379e-12
4.40201e-12
1.62354e-11
6.30164e-11
7.40928e-11
7.33305e-11
6.08544e-11
1.33021e-11
1.44589e-12
)
;

boundaryField
{
    top
    {
        type            zeroGradient;
    }
    left
    {
        type            fixedValue;
        value           uniform 0;
    }
    bottom
    {
        type            zeroGradient;
    }
    right
    {
        type            zeroGradient;
    }
    frontAndBack
    {
        type            empty;
    }
}


// ************************************************************************* //
