/*--------------------------------*- C++ -*----------------------------------*\
| =========                 |                                                 |
| \\      /  F ield         | OpenFOAM: The Open Source CFD Toolbox           |
|  \\    /   O peration     | Version:  v1806                                 |
|   \\  /    A nd           | Web:      www.OpenFOAM.com                      |
|    \\/     M anipulation  |                                                 |
\*---------------------------------------------------------------------------*/
FoamFile
{
    version     2.0;
    format      ascii;
    class       volScalarField;
    location    "0.08";
    object      T;
}
// * * * * * * * * * * * * * * * * * * * * * * * * * * * * * * * * * * * * * //

dimensions      [0 0 0 1 0 0 0];


internalField   nonuniform List<scalar> 
1881
(
5.0418e-24
5.28862e-24
1.23011e-23
1.40539e-22
2.2575e-21
3.42061e-20
4.72016e-19
5.86688e-18
6.49228e-17
6.30465e-16
5.27445e-15
3.70976e-14
2.12115e-13
9.38971e-13
2.98208e-12
5.96721e-12
5.97043e-12
3.01684e-12
1.14985e-12
-1.80193e-23
-1.97402e-23
-2.32799e-23
-3.41755e-23
7.22623e-23
5.42236e-21
1.29188e-19
2.27404e-18
3.25571e-17
3.88247e-16
3.85537e-15
3.14215e-14
2.04374e-13
1.01296e-12
3.54202e-12
7.60194e-12
7.62014e-12
3.59863e-12
1.23377e-12
-6.28528e-23
-6.44804e-23
-9.87953e-23
-6.9315e-22
-1.00894e-20
-1.45783e-19
-1.92246e-18
-2.28011e-17
-2.40256e-16
-2.21591e-15
-1.75537e-14
-1.16505e-13
-6.26312e-13
-2.59842e-12
-7.73101e-12
-1.46464e-11
-1.46319e-11
-7.79689e-12
-3.19294e-12
1.02473e-22
1.17419e-22
5.64858e-23
-1.49719e-21
-2.79135e-20
-4.32411e-19
-6.05099e-18
-7.62253e-17
-8.5489e-16
-8.41456e-15
-7.13605e-14
-5.08849e-13
-2.94987e-12
-1.32375e-11
-4.25857e-11
-8.60861e-11
-8.61554e-11
-4.31062e-11
-1.61982e-11
9.03727e-22
9.35625e-22
9.496e-22
2.65291e-22
-1.50782e-20
-2.97907e-19
-4.86496e-18
-6.96499e-17
-8.72422e-16
-9.46559e-15
-8.75783e-14
-6.75592e-13
-4.20597e-12
-2.01254e-11
-6.84504e-11
-1.44163e-10
-1.44429e-10
-6.94483e-11
-2.4543e-11
3.5505e-22
2.07441e-22
4.12232e-22
7.56005e-21
1.22376e-19
1.75377e-18
2.26895e-17
2.63266e-16
2.70674e-15
2.42808e-14
1.86324e-13
1.19187e-12
6.13632e-12
2.42015e-11
6.79967e-11
1.22069e-10
1.2177e-10
6.84044e-11
2.98398e-11
-1.01785e-20
-1.08298e-20
-1.04145e-20
1.30498e-20
4.15455e-19
6.50579e-18
9.00638e-17
1.12123e-15
1.24309e-14
1.20994e-13
1.015e-12
7.16156e-12
4.1094e-11
1.82618e-10
5.82289e-10
1.1691e-09
1.16982e-09
5.89166e-10
2.23569e-10
-2.31121e-20
-2.23838e-20
-2.01758e-20
5.47352e-21
4.48344e-19
7.70247e-18
1.1521e-16
1.54051e-15
1.82548e-14
1.89131e-13
1.68292e-12
1.25557e-11
7.5949e-11
3.54559e-10
1.18154e-09
2.45267e-09
2.4562e-09
1.19759e-09
4.32824e-10
7.86936e-20
8.84511e-20
9.74165e-20
4.13421e-20
-1.00018e-18
-1.53589e-17
-1.91043e-16
-2.09576e-15
-2.01015e-14
-1.65176e-13
-1.12972e-12
-6.16371e-12
-2.5035e-11
-6.61853e-11
-7.63925e-11
5.86672e-11
6.39582e-11
-7.18845e-11
-8.4375e-11
4.29448e-19
4.40072e-19
4.3583e-19
1.23387e-19
-5.15415e-18
-8.38793e-17
-1.14906e-15
-1.41149e-14
-1.54388e-13
-1.48255e-12
-1.22702e-11
-8.54143e-11
-4.83577e-10
-2.12083e-09
-6.67943e-09
-1.32816e-08
-1.32865e-08
-6.75497e-09
-2.59845e-09
-1.02341e-19
-2.005e-19
-3.57267e-19
-1.00878e-18
-9.84553e-18
-1.46257e-16
-2.08727e-15
-2.69297e-14
-3.09242e-13
-3.11486e-12
-2.70189e-11
-1.9697e-10
-1.16676e-09
-5.34563e-09
-1.75286e-08
-3.59603e-08
-3.60006e-08
-1.77537e-08
-6.53143e-09
-5.31316e-18
-5.64171e-18
-6.0416e-18
-6.1435e-18
-2.33023e-18
4.17913e-17
3.85364e-16
1.35057e-15
-2.39996e-14
-6.13627e-13
-8.34331e-12
-8.14699e-11
-5.96929e-10
-3.21827e-09
-1.19544e-08
-2.66715e-08
-2.67509e-08
-1.21582e-08
-3.89445e-09
-9.28238e-18
-8.77215e-18
-7.87361e-18
-3.50498e-18
5.35788e-17
8.74566e-16
1.17675e-14
1.41897e-13
1.52282e-12
1.43383e-11
1.16268e-10
7.92316e-10
4.38786e-09
1.88147e-08
5.79663e-08
1.1322e-07
1.13215e-07
5.85759e-08
2.30878e-08
4.42758e-17
4.9207e-17
5.59852e-17
7.06313e-17
2.07924e-16
2.20444e-15
2.98522e-14
3.75502e-13
4.21822e-12
4.16225e-11
3.54091e-10
2.53436e-09
1.47552e-08
6.6527e-08
2.15064e-07
4.3654e-07
4.36912e-07
2.177e-07
8.13569e-08
1.96395e-16
2.00185e-16
2.04667e-16
2.11881e-16
2.90007e-16
1.63221e-15
2.26536e-14
3.14342e-13
3.86893e-12
4.1433e-11
3.79506e-10
2.90479e-09
1.7976e-08
8.56297e-08
2.90323e-07
6.10296e-07
6.1128e-07
2.94331e-07
1.04328e-07
-1.30955e-16
-1.81713e-16
-2.49177e-16
-3.49595e-16
-8.4771e-16
-6.84658e-15
-8.2752e-14
-9.54276e-13
-9.81542e-12
-8.82198e-11
-6.79093e-10
-4.36361e-09
-2.26063e-08
-8.99029e-08
-2.55257e-07
-4.63235e-07
-4.6242e-07
-2.57217e-07
-1.10971e-07
-2.54862e-15
-2.69357e-15
-2.87804e-15
-3.15137e-15
-4.81092e-15
-2.71475e-14
-3.29152e-13
-4.03025e-12
-4.43889e-11
-4.29834e-10
-3.58995e-09
-2.52349e-08
-1.44355e-07
-6.39949e-07
-2.037e-06
-4.08584e-06
-4.08819e-06
-2.06084e-06
-7.83475e-07
-3.46701e-15
-3.15295e-15
-2.74051e-15
-2.36113e-15
-3.84527e-15
-3.57167e-14
-4.98891e-13
-6.44124e-12
-7.4062e-11
-7.47169e-10
-6.49357e-09
-4.74457e-08
-2.81765e-07
-1.29451e-06
-4.25668e-06
-8.75315e-06
-8.76278e-06
-4.31072e-06
-1.58066e-06
2.28722e-14
2.52015e-14
2.8118e-14
3.12983e-14
3.55501e-14
5.00981e-14
1.52063e-13
6.98634e-13
-7.06116e-13
-8.51697e-11
-1.36986e-09
-1.43022e-08
-1.08656e-07
-5.9922e-07
-2.25956e-06
-5.0879e-06
-5.10251e-06
-2.29663e-06
-7.22624e-07
8.48586e-14
8.57198e-14
8.65442e-14
8.74775e-14
9.8591e-14
2.67996e-13
2.53718e-12
2.97091e-11
3.1864e-10
3.00693e-09
2.44583e-08
1.6731e-07
9.30783e-07
4.01195e-06
1.24299e-05
2.43981e-05
2.4401e-05
1.25652e-05
4.92244e-06
-1.00816e-13
-1.26665e-13
-1.5903e-13
-1.93139e-13
-2.04993e-13
1.627e-13
5.7702e-12
7.59459e-11
8.51979e-10
8.36586e-09
7.08368e-08
5.04899e-07
2.92898e-06
1.31662e-05
4.24614e-05
8.60537e-05
8.61205e-05
4.2973e-05
1.61005e-05
-1.18197e-12
-1.24288e-12
-1.31505e-12
-1.38534e-12
-1.42977e-12
-1.10056e-12
4.60835e-12
8.02984e-11
9.61841e-10
9.92334e-09
8.79396e-08
6.54202e-07
3.95048e-06
1.84295e-05
6.14227e-05
0.000127577
0.000127736
6.2215e-05
2.24706e-05
-1.12048e-12
-9.34151e-13
-6.95906e-13
-4.21273e-13
-1.44444e-13
-3.6186e-13
-7.10216e-12
-8.48341e-11
-8.32542e-10
-6.96873e-09
-4.88885e-08
-2.77586e-07
-1.20911e-06
-3.7043e-06
-6.83561e-06
-5.90333e-06
-5.75409e-06
-6.78569e-06
-4.70182e-06
1.15728e-11
1.26595e-11
1.39655e-11
1.53253e-11
1.65375e-11
1.49239e-11
-2.49279e-11
-5.24234e-10
-5.91952e-09
-5.68609e-08
-4.6973e-07
-3.26564e-06
-1.84807e-05
-8.10865e-05
-0.000255682
-0.000509169
-0.000509384
-0.000258603
-9.93492e-05
3.54626e-11
3.53899e-11
3.51439e-11
3.45465e-11
3.31813e-11
2.57733e-11
-5.91223e-11
-1.09709e-09
-1.25979e-08
-1.24467e-07
-1.05927e-06
-7.58901e-06
-4.42561e-05
-0.000199983
-0.000648183
-0.00131885
-0.00131993
-0.000656021
-0.000244411
-6.59348e-11
-7.8946e-11
-9.46797e-11
-1.11808e-10
-1.30529e-10
-1.55013e-10
-2.45803e-10
-1.18999e-09
-1.20131e-08
-1.22487e-07
-1.08956e-06
-8.14672e-06
-4.94396e-05
-0.000231715
-0.000775485
-0.00161577
-0.00161778
-0.000785399
-0.000282309
-5.40535e-10
-5.6523e-10
-5.92938e-10
-6.19368e-10
-6.43129e-10
-6.56288e-10
-5.67057e-10
6.27868e-10
1.25855e-08
1.15112e-07
8.58219e-07
5.27136e-06
2.57814e-05
9.52142e-05
0.000246095
0.000404026
0.000402636
0.000247704
0.000118624
-2.80345e-10
-1.74708e-10
-4.48235e-11
1.03535e-10
2.73795e-10
5.00854e-10
1.23353e-09
7.80589e-09
7.64775e-08
7.23716e-07
5.9786e-06
4.16522e-05
0.000236346
0.0010401
0.00328973
0.00656832
0.00657141
0.00332759
0.00127401
5.7494e-09
6.24957e-09
6.82533e-09
7.42131e-09
8.03507e-09
8.72752e-09
1.03766e-08
2.37482e-08
1.65333e-07
1.53221e-06
1.29103e-05
9.21339e-05
0.000535749
0.00241512
0.00781254
0.0158747
0.0158869
0.00790594
0.00295174
1.44124e-08
1.41432e-08
1.37453e-08
1.31727e-08
1.24035e-08
1.1481e-08
1.12882e-08
2.32355e-08
1.75136e-07
1.71008e-06
1.48978e-05
0.000109429
0.000653641
0.00302108
0.00999253
0.0206457
0.0206672
0.0101158
0.00368379
-3.89855e-08
-4.54347e-08
-5.29192e-08
-6.09661e-08
-6.95602e-08
-7.87276e-08
-8.87795e-08
-1.02618e-07
-1.41134e-07
-3.01631e-07
-5.67271e-07
4.44917e-06
7.00829e-05
0.000503864
0.00218225
0.00529023
0.00530812
0.00221796
0.000594307
-2.43313e-07
-2.52801e-07
-2.62712e-07
-2.71668e-07
-2.79366e-07
-2.85815e-07
-2.94247e-07
-3.45775e-07
-8.72268e-07
-5.79714e-06
-4.53801e-05
-0.000311153
-0.00174523
-0.00759698
-0.0237847
-0.0471104
-0.0471262
-0.0240541
-0.00931487
-1.89844e-08
3.8581e-08
1.06615e-07
1.83216e-07
2.6884e-07
3.63315e-07
4.58689e-07
4.5474e-07
-7.23184e-07
-1.30843e-05
-0.000115908
-0.000825395
-0.00475947
-0.0212673
-0.0682466
-0.137838
-0.137927
-0.0690466
-0.0260102
2.78924e-06
3.01808e-06
3.26958e-06
3.52632e-06
3.7852e-06
4.04264e-06
4.28339e-06
4.35324e-06
2.60757e-06
-1.64864e-05
-0.000177927
-0.00130901
-0.00767693
-0.0348032
-0.113144
-0.2308
-0.230982
-0.114491
-0.0425067
5.6537e-06
5.41248e-06
5.09014e-06
4.67177e-06
4.14899e-06
3.51489e-06
2.75366e-06
1.72715e-06
-1.0622e-06
-2.01297e-05
-0.000175288
-0.00127933
-0.00762847
-0.0352514
-0.116635
-0.241092
-0.24133
-0.118056
-0.0429766
-2.19075e-05
-2.53018e-05
-2.90068e-05
-3.28768e-05
-3.68845e-05
-4.10054e-05
-4.52126e-05
-4.94558e-05
-5.3523e-05
-5.65444e-05
-5.91981e-05
-0.000115649
-0.000763936
-0.00496058
-0.02107
-0.0507796
-0.0509381
-0.0214015
-0.00585509
-0.000109896
-0.000113133
-0.000115909
-0.000117947
-0.000119238
-0.000119784
-0.000119556
-0.000118169
-0.000111558
-6.28081e-05
0.000312682
0.00281622
0.0163162
0.0714117
0.223949
0.444029
0.444214
0.226577
0.0877066
7.17043e-05
9.9302e-05
0.000127612
0.000156246
0.000185208
0.000214494
0.000244175
0.000275206
0.000317821
0.000466811
0.00146856
0.008155
0.0450879
0.198581
0.633019
1.2739
1.27467
0.640651
0.243324
0.00145616
0.0014887
0.0015238
0.00155894
0.0015941
0.00162927
0.00166459
0.00170176
0.00175879
0.00200395
0.00377303
0.0157887
0.0826261
0.363306
1.16461
2.35602
2.35757
1.17845
0.444139
0.00286646
0.00289556
0.00292925
0.00296303
0.00299678
0.00303051
0.0030644
0.0031009
0.00316617
0.00350548
0.00607516
0.0237124
0.122257
0.53837
1.73193
3.5142
3.51662
1.75237
0.657479
0.00420527
0.00423056
0.00426221
0.00429413
0.00432602
0.00435788
0.00438996
0.00442536
0.00449732
0.00491849
0.00819026
0.0307776
0.157343
0.693576
2.23624
4.54608
4.54929
2.26254
0.846509
0.00546787
0.00548955
0.0055191
0.00554912
0.00557912
0.00560909
0.00563933
0.00567339
0.00574964
0.00622949
0.0100103
0.0362022
0.18324
0.807533
2.60696
5.30598
5.30977
2.63753
0.985169
0.00665379
0.00667207
0.00669944
0.00672751
0.00675557
0.00678361
0.00681193
0.00684436
0.00692222
0.0074352
0.011511
0.0398041
0.198817
0.874815
2.82551
5.75453
5.75865
2.85858
1.06689
0.00776205
0.00777709
0.0078022
0.00782827
0.00785436
0.00788044
0.00790682
0.00793744
0.00801487
0.00854081
0.0127414
0.0419337
0.206093
0.904434
2.92079
5.95002
5.95428
2.95491
1.1027
0.00879406
0.00880637
0.00882958
0.00885407
0.00887867
0.0089033
0.0089283
0.00895761
0.0090341
0.00956208
0.0137895
0.0431825
0.208499
0.911944
2.94346
5.99607
6.00036
2.97781
1.11159
0.00976475
0.00977582
0.00979847
0.00982271
0.00984711
0.00987155
0.00989633
0.00992539
0.0100015
0.010528
0.014746
0.0440758
0.209032
0.910989
2.93827
5.98456
5.98884
2.97253
1.11019
0.0106878
0.0106961
0.010716
0.0107373
0.0107584
0.0107791
0.0107997
0.0108242
0.0108952
0.011415
0.0156142
0.0448456
0.209258
0.908939
2.92963
5.96595
5.9702
2.96371
1.1074
0.0114003
0.011391
0.0113934
0.0113978
0.0114021
0.0114063
0.0114107
0.0114192
0.0114743
0.0119775
0.0161526
0.0453067
0.209247
0.907287
2.92342
5.95291
5.95714
2.9573
1.10507
0.0114533
0.01144
0.0114376
0.0114375
0.0114376
0.0114378
0.0114383
0.011443
0.0114945
0.0119935
0.0161596
0.0452688
0.208964
0.905946
2.91896
5.94371
5.94793
2.95278
1.10341
0.0114513
0.0114384
0.0114354
0.0114349
0.0114347
0.0114346
0.0114348
0.0114393
0.0114905
0.0119893
0.0161545
0.0452553
0.208889
0.905549
2.91747
5.94036
5.94457
2.95126
1.10293
0.0114456
0.0114333
0.0114301
0.0114295
0.0114293
0.0114292
0.0114295
0.011434
0.0114855
0.011986
0.0161645
0.0453553
0.209476
0.90812
2.92551
5.95621
5.96044
2.95941
1.10611
0.0114437
0.0114322
0.011429
0.0114286
0.0114287
0.0114288
0.0114293
0.0114342
0.0114864
0.0119916
0.0162082
0.0456633
0.211263
0.916151
2.95136
6.00845
6.01273
2.98562
1.116
0.0114552
0.0114447
0.0114418
0.0114418
0.0114424
0.0114431
0.0114442
0.0114497
0.0115031
0.0120161
0.0162941
0.0461823
0.214247
0.929723
2.99566
6.09895
6.10333
3.03054
1.1327
0.0114898
0.0114803
0.0114778
0.0114785
0.0114797
0.0114811
0.0114829
0.0114891
0.0115439
0.012064
0.0163989
0.0466988
0.217165
0.943204
3.04046
6.19182
6.19633
3.07599
1.14923
0.0115476
0.0115388
0.0115366
0.0115375
0.0115392
0.0115409
0.0115431
0.0115496
0.0116046
0.0121236
0.0164512
0.0467226
0.217167
0.943697
3.044
6.20217
6.20673
3.0796
1.14974
0.011607
0.0115983
0.0115956
0.0115959
0.0115969
0.011598
0.0115994
0.0116051
0.0116574
0.0121574
0.0163342
0.0455782
0.210388
0.913601
2.94869
6.0121
6.01651
2.98298
1.11259
0.0116178
0.0116084
0.0116036
0.0116016
0.0116002
0.011599
0.0115979
0.0116007
0.0116461
0.012101
0.0159186
0.0426679
0.193517
0.837752
2.70437
5.518
5.52192
2.73529
1.01917
0.0115064
0.011495
0.0114864
0.0114801
0.0114744
0.0114687
0.0114632
0.0114608
0.0114948
0.011877
0.0151143
0.0378024
0.165726
0.712268
2.29745
4.69046
4.69349
2.32273
0.864791
0.0111954
0.0111811
0.0111673
0.0111551
0.0111434
0.0111317
0.01112
0.0111108
0.0111299
0.0114198
0.0139177
0.0314025
0.129791
0.54978
1.76841
3.61085
3.6127
1.78636
0.665039
0.0106317
0.0106142
0.0105947
0.0105761
0.0105578
0.0105394
0.0105211
0.0105045
0.010508
0.010701
0.0124218
0.0244137
0.091487
0.376719
1.20343
2.45494
2.45551
1.21357
0.452441
0.00980862
0.00978831
0.00976378
0.0097394
0.00971519
0.00969094
0.00966668
0.00964358
0.00963345
0.00974205
0.0107817
0.0179401
0.0573469
0.223072
0.700964
1.42483
1.42424
0.704166
0.263831
0.00876882
0.00874678
0.00871879
0.00869033
0.00866193
0.00863352
0.00860512
0.00857747
0.0085577
0.00860565
0.00915265
0.0127971
0.0320062
0.110149
0.331507
0.666139
0.664677
0.329597
0.125328
0.00758822
0.0075657
0.00753615
0.00750567
0.00747517
0.00744468
0.00741424
0.00738434
0.00735945
0.00737302
0.00763609
0.00924065
0.0166593
0.0434337
0.11373
0.218412
0.216422
0.108781
0.0436084
0.00634976
0.00632787
0.00629846
0.0062678
0.00623708
0.00620638
0.00617575
0.0061456
0.0061193
0.00611931
0.00626387
0.00700426
0.0093832
0.0140454
0.0189467
0.0236591
0.0214307
0.0126578
0.00774992
0.00512341
0.00510295
0.00507494
0.0050455
0.00501595
0.00498644
0.00495703
0.0049281
0.00490277
0.00490108
0.00502077
0.00557088
0.00682617
0.00650838
-0.00346926
-0.0217136
-0.0239819
-0.0100213
-0.00118342
0.00396096
0.0039425
0.00391682
0.00388965
0.00386234
0.00383508
0.00380794
0.0037813
0.00375825
0.00375891
0.00388409
0.00447504
0.00601566
0.00708698
0.00138029
-0.0103746
-0.0125488
-0.00486383
7.43959e-05
0.00290283
0.00288683
0.00286429
0.0028403
0.00281618
0.00279212
0.00276819
0.00274477
0.00272474
0.00272743
0.00285279
0.00346619
0.00529079
0.00806271
0.00807407
0.00528174
0.00331188
0.00246537
0.00217223
0.00198563
0.00197252
0.00195386
0.00193392
0.00191386
0.00189389
0.00187406
0.00185469
0.00183826
0.00184146
0.00195194
0.00250038
0.00421187
0.00727639
0.00937653
0.0102104
0.00854874
0.00466267
0.00249208
0.00124162
0.00123168
0.00121742
0.00120215
0.00118679
0.00117153
0.00115641
0.00114168
0.00112923
0.00113184
0.00121684
0.00163934
0.00296358
0.00535975
0.0070877
0.00791022
0.00663557
0.00347016
0.00169983
0.000689577
0.000682782
0.000672988
0.000662477
0.000651925
0.000641467
0.000631139
0.000621098
0.00061262
0.000614271
0.00067118
0.000953464
0.00182963
0.00335985
0.00424334
0.00436057
0.00349632
0.00178564
0.000852809
0.000325044
0.000320994
0.000315135
0.000308847
0.000302549
0.000296329
0.000290208
0.000284276
0.000279261
0.000280061
0.00031248
0.000473503
0.000969864
0.0018116
0.00219065
0.00205577
0.00155668
0.000768699
0.000352095
0.000118491
0.000116488
0.000113584
0.000110472
0.000107367
0.000104314
0.000101326
9.84418e-05
9.59944e-05
9.62291e-05
0.000111015
0.000185108
0.000414155
0.000802313
0.000971563
0.000899277
0.00066892
0.000314434
0.000127947
2.40859e-05
2.33454e-05
2.22722e-05
2.11258e-05
1.99903e-05
1.88836e-05
1.78095e-05
1.67802e-05
1.58979e-05
1.58597e-05
2.03827e-05
4.36406e-05
0.000116636
0.00024407
0.000312537
0.000313257
0.00024122
0.000106773
3.43399e-05
-5.7284e-06
-5.86328e-06
-6.0577e-06
-6.26192e-06
-6.45871e-06
-6.64428e-06
-6.81819e-06
-6.98025e-06
-7.12688e-06
-7.22892e-06
-7.11179e-06
-6.02241e-06
-1.94886e-06
6.98319e-06
1.75232e-05
2.85696e-05
2.51562e-05
7.58317e-06
-2.4711e-06
-7.79878e-06
-7.74454e-06
-7.66488e-06
-7.57726e-06
-7.48668e-06
-7.39418e-06
-7.30024e-06
-7.20724e-06
-7.13345e-06
-7.20091e-06
-8.05092e-06
-1.20921e-05
-2.44775e-05
-4.56509e-05
-5.61659e-05
-5.45395e-05
-4.22185e-05
-2.11087e-05
-9.76781e-06
-3.31994e-06
-3.26218e-06
-3.17805e-06
-3.08736e-06
-2.99639e-06
-2.90649e-06
-2.81802e-06
-2.73243e-06
-2.66111e-06
-2.68136e-06
-3.20405e-06
-5.79389e-06
-1.38845e-05
-2.81269e-05
-3.64515e-05
-3.77835e-05
-2.98673e-05
-1.38734e-05
-5.16701e-06
-3.16574e-07
-2.9536e-07
-2.64649e-07
-2.31933e-07
-1.99681e-07
-1.68431e-07
-1.38292e-07
-1.0956e-07
-8.4749e-08
-8.12088e-08
-1.92397e-07
-7.78572e-07
-2.63989e-06
-5.93073e-06
-7.77828e-06
-7.96842e-06
-6.14262e-06
-2.54812e-06
-6.14717e-07
4.29237e-07
4.29101e-07
4.28791e-07
4.28242e-07
4.27392e-07
4.26227e-07
4.24766e-07
4.23138e-07
4.22306e-07
4.28634e-07
4.75478e-07
6.88258e-07
1.33979e-06
2.49031e-06
3.23672e-06
3.47424e-06
2.8437e-06
1.4484e-06
6.75177e-07
2.31172e-07
2.27338e-07
2.21737e-07
2.15675e-07
2.09564e-07
2.03497e-07
1.975e-07
1.91685e-07
1.86926e-07
1.89146e-07
2.29846e-07
4.28928e-07
1.04819e-06
2.12674e-06
2.7085e-06
2.71993e-06
2.11014e-06
9.67798e-07
3.52684e-07
1.24736e-08
1.1016e-08
8.90973e-09
6.67031e-09
4.46847e-09
2.34178e-09
2.97355e-10
-1.64675e-09
-3.33701e-09
-3.70721e-09
3.00499e-09
3.89954e-08
1.52739e-07
3.4669e-07
4.22604e-07
3.72565e-07
2.57987e-07
9.32806e-08
9.16561e-09
-3.44062e-08
-3.4242e-08
-3.39933e-08
-3.37091e-08
-3.34029e-08
-3.30777e-08
-3.27361e-08
-3.2392e-08
-3.21514e-08
-3.27239e-08
-3.78528e-08
-6.16719e-08
-1.34717e-07
-2.60857e-07
-3.2804e-07
-3.27312e-07
-2.55345e-07
-1.23109e-07
-5.17518e-08
-1.16308e-08
-1.13374e-08
-1.09102e-08
-1.04504e-08
-9.99069e-09
-9.53823e-09
-9.09503e-09
-8.6682e-09
-8.31471e-09
-8.42276e-09
-1.10669e-08
-2.41667e-08
-6.49476e-08
-1.34969e-07
-1.67346e-07
-1.58157e-07
-1.17557e-07
-5.11515e-08
-1.6167e-08
2.81933e-09
2.86464e-09
2.92884e-09
2.99505e-09
3.05742e-09
3.11467e-09
3.16679e-09
3.21447e-09
3.26252e-09
3.34141e-09
3.60519e-09
4.60883e-09
7.4719e-09
1.2142e-08
1.42794e-08
1.34923e-08
1.0638e-08
6.26404e-09
3.88868e-09
2.40525e-09
2.36674e-09
2.31033e-09
2.24899e-09
2.18685e-09
2.12485e-09
2.0633e-09
2.00355e-09
1.95625e-09
1.99355e-09
2.50001e-09
4.94033e-09
1.24966e-08
2.54848e-08
3.17004e-08
3.03687e-08
2.28726e-08
1.02702e-08
3.58856e-09
-7.31094e-11
-8.65741e-11
-1.05928e-10
-1.2638e-10
-1.46329e-10
-1.65423e-10
-1.83608e-10
-2.00795e-10
-2.16171e-10
-2.23856e-10
-1.91027e-10
1.36134e-11
6.96568e-10
1.95776e-09
2.76209e-09
3.03253e-09
2.37386e-09
8.56826e-10
3.80216e-11
-3.82537e-10
-3.78102e-10
-3.71555e-10
-3.64361e-10
-3.56975e-10
-3.49504e-10
-3.41993e-10
-3.34654e-10
-3.29158e-10
-3.3681e-10
-4.17808e-10
-8.01426e-10
-1.98681e-09
-4.03295e-09
-5.05895e-09
-4.93569e-09
-3.76532e-09
-1.71481e-09
-6.20489e-10
-1.81949e-11
-1.57525e-11
-1.22307e-11
-8.48836e-12
-4.80957e-12
-1.25717e-12
2.15667e-12
5.40206e-12
8.22539e-12
8.84941e-12
-2.44704e-12
-6.37818e-11
-2.61908e-10
-6.19643e-10
-8.36174e-10
-8.88683e-10
-6.9648e-10
-2.83197e-10
-6.02208e-11
5.70298e-11
5.64562e-11
5.56059e-11
5.46655e-11
5.3693e-11
5.27016e-11
5.16981e-11
5.07153e-11
5.00109e-11
5.13309e-11
6.3984e-11
1.23502e-10
3.07697e-10
6.28309e-10
7.99812e-10
8.00814e-10
6.201e-10
2.83485e-10
1.02519e-10
2.59608e-12
2.2281e-12
1.69775e-12
1.13415e-12
5.80038e-13
4.48547e-14
-4.69574e-13
-9.58917e-13
-1.38638e-12
-1.49354e-12
1.35929e-13
9.06145e-12
3.79036e-11
8.959e-11
1.18866e-10
1.22791e-10
9.46126e-11
3.76976e-11
7.29853e-12
-8.68502e-12
-8.58678e-12
-8.44172e-12
-8.28206e-12
-8.11789e-12
-7.95154e-12
-7.78409e-12
-7.621e-12
-7.50533e-12
-7.72961e-12
-9.85774e-12
-1.98776e-11
-5.0971e-11
-1.05382e-10
-1.35337e-10
-1.37187e-10
-1.06788e-10
-4.84311e-11
-1.69997e-11
1.46529e-13
1.94545e-13
2.63498e-13
3.36425e-13
4.07684e-13
4.76036e-13
5.41279e-13
6.03097e-13
6.58604e-13
6.8691e-13
5.71264e-13
-1.53586e-13
-2.54827e-12
-6.76829e-12
-8.57456e-12
-7.84389e-12
-5.44912e-12
-1.62343e-12
3.18275e-13
1.22383e-12
1.20543e-12
1.17846e-12
1.14906e-12
1.1192e-12
1.0893e-12
1.05955e-12
1.03079e-12
1.00977e-12
1.04251e-12
1.37565e-12
2.95571e-12
7.86749e-12
1.64357e-11
2.09623e-11
2.09109e-11
1.60938e-11
7.17385e-12
2.40171e-12
-1.72515e-13
-1.76552e-13
-1.8227e-13
-1.88198e-13
-1.93837e-13
-1.9908e-13
-2.03923e-13
-2.08426e-13
-2.13027e-13
-2.20554e-13
-2.45575e-13
-3.41961e-13
-6.25034e-13
-1.12182e-12
-1.47303e-12
-1.62587e-12
-1.35667e-12
-7.15332e-13
-3.54616e-13
-1.19541e-13
-1.16376e-13
-1.11777e-13
-1.0682e-13
-1.01853e-13
-9.69571e-14
-9.21539e-14
-8.75359e-14
-8.3846e-14
-8.61868e-14
-1.22072e-13
-2.97591e-13
-8.46771e-13
-1.79946e-12
-2.25937e-12
-2.1752e-12
-1.63221e-12
-7.01202e-13
-2.10306e-13
6.34451e-14
6.31747e-14
6.27604e-14
6.22807e-14
6.17573e-14
6.11955e-14
6.06019e-14
6.00188e-14
5.97828e-14
6.21785e-14
7.94078e-14
1.58089e-13
4.00153e-13
8.18714e-13
1.03103e-12
1.01123e-12
7.73466e-13
3.51161e-13
1.25907e-13
6.03727e-15
5.55667e-15
4.86375e-15
4.12534e-15
3.39629e-15
2.68873e-15
2.0052e-15
1.35294e-15
7.92572e-16
7.48618e-16
3.54442e-15
1.82738e-14
6.53736e-14
1.48216e-13
1.88965e-13
1.83647e-13
1.37153e-13
5.49299e-14
1.1793e-14
-1.12491e-14
-1.11151e-14
-1.09186e-14
-1.07036e-14
-1.04841e-14
-1.02632e-14
-1.00423e-14
-9.83021e-15
-9.69611e-15
-1.01137e-14
-1.36261e-14
-2.99988e-14
-8.07029e-14
-1.68602e-13
-2.12575e-13
-2.07483e-13
-1.57644e-13
-6.98013e-14
-2.31498e-14
7.98771e-16
8.34362e-16
8.85159e-16
9.38461e-16
9.90024e-16
1.03893e-15
1.08508e-15
1.12872e-15
1.17133e-15
1.22183e-15
1.3225e-15
1.61232e-15
2.31824e-15
3.22215e-15
2.98121e-15
1.52822e-15
7.75495e-16
9.11825e-16
1.02058e-15
4.9509e-16
4.82667e-16
4.64672e-16
4.45331e-16
4.26009e-16
4.07008e-16
3.88425e-16
3.70704e-16
3.5749e-16
3.73919e-16
5.55977e-16
1.43072e-15
4.17641e-15
9.02973e-15
1.17395e-14
1.20061e-14
9.33316e-15
4.06969e-15
1.24701e-15
)
;

boundaryField
{
    top
    {
        type            zeroGradient;
    }
    left
    {
        type            fixedValue;
        value           uniform 0;
    }
    bottom
    {
        type            zeroGradient;
    }
    right
    {
        type            zeroGradient;
    }
    frontAndBack
    {
        type            empty;
    }
}


// ************************************************************************* //
