/*--------------------------------*- C++ -*----------------------------------*\
| =========                 |                                                 |
| \\      /  F ield         | OpenFOAM: The Open Source CFD Toolbox           |
|  \\    /   O peration     | Version:  v1806                                 |
|   \\  /    A nd           | Web:      www.OpenFOAM.com                      |
|    \\/     M anipulation  |                                                 |
\*---------------------------------------------------------------------------*/
FoamFile
{
    version     2.0;
    format      ascii;
    class       volScalarField;
    location    "0.08";
    object      T;
}
// * * * * * * * * * * * * * * * * * * * * * * * * * * * * * * * * * * * * * //

dimensions      [0 0 0 1 0 0 0];


internalField   nonuniform List<scalar> 
1881
(
1.52071e-96
1.0204e-94
6.63708e-93
4.10422e-91
2.39733e-89
1.31244e-87
6.66999e-86
3.1095e-84
1.30977e-82
4.88669e-81
1.57183e-79
4.19197e-78
8.71974e-77
1.26823e-75
1.00336e-74
1.11458e-74
1.11374e-74
9.96365e-75
1.27689e-75
2.58167e-94
1.77155e-92
1.17867e-90
7.45941e-89
4.46152e-87
2.50221e-85
1.30337e-83
6.23087e-82
2.6928e-80
1.03145e-78
3.40863e-77
9.34769e-76
2.00133e-74
2.99877e-73
2.44397e-72
2.70763e-72
2.7057e-72
2.42746e-72
3.01435e-73
4.3663e-92
3.06468e-90
2.08617e-88
1.35151e-86
8.27882e-85
4.75767e-83
2.54065e-81
1.24586e-79
5.52635e-78
2.17428e-76
7.38678e-75
2.08465e-73
4.59833e-72
7.10662e-71
5.97456e-70
6.60096e-70
6.59654e-70
5.93549e-70
7.13166e-71
7.30944e-90
5.24957e-88
3.65732e-86
2.42622e-84
1.52264e-82
8.96944e-81
4.91241e-79
2.47211e-77
1.12616e-75
4.55424e-74
1.592e-72
4.62839e-71
1.05316e-69
1.68125e-68
1.46042e-67
1.60897e-67
1.60796e-67
1.45118e-67
1.68425e-68
1.21034e-87
8.89727e-86
6.34619e-84
4.31243e-82
2.77369e-80
1.67546e-78
9.4154e-77
4.86517e-75
2.27764e-73
9.47541e-72
3.41152e-70
1.02299e-68
2.40466e-67
3.97161e-66
3.57094e-65
3.92275e-65
3.92044e-65
3.54911e-65
3.9715e-66
1.98079e-85
1.49087e-83
1.08906e-81
7.58316e-80
5.00051e-78
3.09873e-76
1.78768e-74
9.49094e-73
4.56975e-71
1.95758e-69
7.26774e-68
2.25091e-66
5.47443e-65
9.37113e-64
8.73778e-63
9.56993e-63
9.56467e-63
8.68624e-63
9.35323e-64
3.20117e-83
2.46772e-81
1.84674e-79
1.31808e-77
8.91481e-76
5.67005e-74
3.36009e-72
1.83423e-70
9.09137e-69
4.01472e-67
1.539e-65
4.93053e-64
1.24287e-62
2.20919e-61
2.14042e-60
2.33707e-60
2.33588e-60
2.12825e-60
2.20067e-61
5.1039e-81
4.03096e-79
3.09144e-77
2.26258e-75
1.57028e-73
1.02565e-71
6.24777e-70
3.50983e-68
1.79272e-66
8.1712e-65
3.23902e-63
1.07522e-61
2.81434e-60
5.20473e-59
5.25062e-58
5.71506e-58
5.71236e-58
5.22191e-58
5.17429e-59
8.01985e-79
6.49124e-77
5.10362e-75
3.83189e-73
2.73032e-71
1.8326e-69
1.14843e-67
6.64596e-66
3.50234e-64
1.65005e-62
6.77448e-61
2.33436e-59
6.35688e-58
1.22564e-56
1.29014e-55
1.39978e-55
1.39917e-55
1.28337e-55
1.216e-56
1.24052e-76
1.02935e-74
8.30011e-73
6.39614e-71
4.68176e-69
3.23163e-67
2.08535e-65
1.24457e-63
6.77614e-62
3.30495e-60
1.40786e-58
5.04534e-57
1.43231e-55
2.88512e-54
3.17564e-53
3.43435e-53
3.43298e-53
3.15968e-53
2.85653e-54
1.88659e-74
1.60543e-72
1.32822e-70
1.0511e-68
7.9091e-67
5.61922e-65
3.73782e-63
2.30358e-61
1.29772e-59
6.56367e-58
2.90645e-56
1.08542e-54
3.21896e-53
6.7885e-52
7.83071e-51
8.44096e-51
8.43786e-51
7.79311e-51
6.70749e-52
2.81706e-72
2.45943e-70
2.08877e-68
1.69855e-66
1.31493e-64
9.62548e-63
6.60808e-61
4.21136e-59
2.45881e-57
1.29199e-55
5.95862e-54
2.32365e-52
7.21399e-51
1.59632e-49
1.93428e-48
2.07814e-48
2.07744e-48
1.92544e-48
1.57407e-49
4.12402e-70
3.69551e-68
3.22371e-66
2.69574e-64
2.14903e-62
1.62263e-60
1.15124e-58
7.59893e-57
4.60614e-55
2.5192e-53
1.21252e-51
4.94779e-50
1.61156e-48
3.75033e-47
4.78559e-46
5.1244e-46
5.12285e-46
4.76481e-46
3.69071e-47
5.9095e-68
5.438e-66
4.87562e-64
4.19609e-62
3.44825e-60
2.68891e-58
1.97449e-56
1.35209e-54
8.52447e-53
4.86225e-51
2.44735e-49
1.04723e-47
3.58662e-46
8.79941e-45
1.18573e-43
1.26543e-43
1.26508e-43
1.18086e-43
8.64269e-45
8.27409e-66
7.82332e-64
7.21459e-62
6.39628e-60
5.42462e-58
4.37466e-56
3.32995e-54
2.36982e-52
1.55696e-50
9.28026e-49
4.89511e-47
2.20137e-45
7.94667e-44
2.06094e-42
2.94172e-41
3.12885e-41
3.12809e-41
2.93033e-41
2.02041e-42
1.12975e-63
1.09829e-61
1.04262e-59
9.53223e-58
8.35355e-56
6.97719e-54
5.51454e-52
4.08603e-50
2.8029e-48
1.74941e-46
9.69109e-45
4.59095e-43
1.75136e-41
4.81572e-40
7.30588e-39
7.74427e-39
7.7426e-39
7.27935e-39
4.71244e-40
1.50108e-61
1.50143e-59
1.46861e-57
1.38617e-55
1.25693e-53
1.089e-51
8.95236e-50
6.91912e-48
4.96542e-46
3.25197e-44
1.89622e-42
9.48661e-41
3.83544e-39
1.12185e-37
1.81562e-36
1.91802e-36
1.91765e-36
1.80947e-36
1.0959e-37
1.93608e-59
1.99404e-57
2.01164e-55
1.96258e-53
1.84397e-51
1.65985e-49
1.42174e-47
1.14834e-45
8.63861e-44
5.94953e-42
3.66045e-40
1.93931e-38
8.33606e-37
2.60298e-35
4.51211e-34
4.75035e-34
4.74957e-34
4.49795e-34
2.53876e-35
2.41739e-57
2.56581e-55
2.67247e-53
2.69835e-51
2.63078e-49
2.46433e-47
2.2032e-45
1.86319e-43
1.47228e-41
1.06874e-39
6.95614e-38
3.91462e-36
1.79521e-34
6.00763e-33
1.12044e-31
1.17558e-31
1.17542e-31
1.1172e-31
5.85101e-33
2.9127e-55
3.1887e-53
3.4327e-51
3.59152e-49
3.63875e-47
3.55269e-45
3.32103e-43
2.94618e-41
2.45061e-39
1.87957e-37
1.2979e-35
7.78405e-34
3.82272e-32
1.37695e-30
2.77859e-29
2.90533e-29
2.90498e-29
2.77125e-29
1.33927e-30
3.37418e-53
3.81323e-51
4.2472e-49
4.61042e-47
4.86079e-45
4.95426e-43
4.85063e-41
4.52277e-39
3.96893e-37
3.22481e-35
2.36984e-33
1.52009e-31
8.02739e-30
3.12882e-28
6.88567e-27
7.17448e-27
7.17376e-27
6.86918e-27
3.039e-28
3.74169e-51
4.36861e-49
5.03925e-47
5.68194e-45
6.24202e-43
6.65126e-41
6.83214e-39
6.70869e-37
6.22559e-35
5.3738e-33
4.21657e-31
2.90393e-29
1.65718e-27
7.04053e-26
1.70986e-24
1.77502e-24
1.77487e-24
1.70618e-24
6.82714e-26
3.95124e-49
4.76922e-47
5.70227e-45
6.68506e-43
7.66128e-41
8.5463e-39
9.22509e-37
9.55852e-35
9.40308e-33
8.64816e-31
7.27116e-29
5.40079e-27
3.35257e-25
1.56931e-23
4.27684e-22
4.42239e-22
4.4221e-22
4.26862e-22
1.51861e-23
3.94847e-47
4.9292e-45
6.1125e-43
7.45654e-41
8.92305e-39
1.04329e-36
1.18522e-34
1.2984e-32
1.35738e-30
1.33425e-28
1.20679e-26
9.72331e-25
6.62814e-23
3.47109e-21
1.08331e-19
1.11557e-19
1.11551e-19
1.08148e-19
3.3514e-21
3.70511e-45
4.78446e-43
6.15504e-41
7.81614e-39
9.77282e-37
1.19874e-34
1.43515e-32
1.66527e-30
1.85451e-28
1.95454e-26
1.91085e-24
1.68351e-22
1.27728e-20
7.62745e-19
2.77777e-17
2.8489e-17
2.84879e-17
2.77383e-17
7.35371e-19
3.2337e-43
4.31764e-41
5.76083e-39
7.61453e-37
9.94897e-35
1.28085e-32
1.61749e-30
1.99088e-28
2.36701e-26
2.68425e-24
2.8543e-22
2.78041e-20
2.38809e-18
1.65682e-16
7.11635e-15
7.27172e-15
7.27153e-15
7.10829e-15
1.59884e-16
2.59367e-41
3.57664e-39
4.9442e-37
6.796e-35
9.27258e-33
1.25254e-30
1.66865e-28
2.18034e-26
2.77264e-24
3.39671e-22
3.96032e-20
4.32462e-18
4.27808e-16
3.49066e-14
1.76898e-12
1.80201e-12
1.80198e-12
1.76751e-12
3.38417e-14
1.88286e-39
2.67544e-37
3.82302e-35
5.45259e-33
7.75313e-31
1.09695e-28
1.53968e-26
2.1346e-24
2.90629e-22
3.86207e-20
4.98198e-18
6.1817e-16
7.1279e-14
6.85764e-12
4.08472e-10
4.15039e-10
4.15035e-10
4.0825e-10
6.70413e-12
1.21302e-37
1.76882e-35
2.60162e-33
3.83339e-31
5.65556e-29
8.34513e-27
1.22919e-24
1.80235e-22
2.62358e-20
3.78897e-18
5.44081e-16
7.72802e-14
1.04101e-11
1.17728e-09
8.28164e-08
8.39592e-08
8.39588e-08
8.27921e-08
1.1631e-09
6.75905e-36
1.00448e-33
1.5094e-31
2.2792e-29
3.4589e-27
5.27434e-25
8.07555e-23
1.24055e-20
1.91373e-18
2.98137e-16
4.73501e-14
7.64083e-12
1.19238e-09
1.58695e-07
1.36691e-05
1.38252e-05
1.38252e-05
1.36677e-05
1.58422e-07
3.14884e-34
4.7148e-32
7.14529e-30
1.08961e-27
1.67288e-25
2.5867e-23
4.02863e-21
6.32186e-19
1.00227e-16
1.62031e-14
2.71528e-12
4.74686e-10
8.33098e-08
1.32645e-05
0.00162554
0.00163872
0.00163872
0.00162554
1.33446e-05
1.17338e-32
1.73738e-30
2.59773e-28
3.89676e-26
5.86277e-24
8.83914e-22
1.33265e-19
1.99951e-17
2.95576e-15
4.22778e-13
5.68987e-11
6.93006e-09
7.2507e-07
6.05547e-05
0.00357865
0.00363847
0.00363847
0.00357865
6.12764e-05
3.31272e-31
4.71384e-29
6.71537e-27
9.48639e-25
1.32286e-22
1.80848e-20
2.40006e-18
3.0515e-16
3.65505e-14
4.03932e-12
4.01397e-10
3.47128e-08
2.49989e-06
0.000140437
0.00549878
0.00563668
0.00563668
0.00549882
0.000142934
6.72164e-30
8.87864e-28
1.1573e-25
1.46977e-23
1.80604e-21
2.12849e-19
2.3802e-17
2.49316e-15
2.40871e-13
2.10688e-11
1.63043e-09
1.0834e-07
5.93109e-06
0.000251271
0.00738849
0.00763372
0.00763372
0.00738859
0.000257199
9.59937e-29
1.15023e-26
1.34257e-24
1.50501e-22
1.60869e-20
1.62588e-18
1.53857e-16
1.34748e-14
1.07712e-12
7.72591e-11
4.86645e-09
2.61622e-07
1.15333e-05
0.000392227
0.00925687
0.0096373
0.00963731
0.00925713
0.000403758
9.80768e-28
1.05885e-25
1.10458e-23
1.09672e-21
1.02906e-19
9.05108e-18
7.39274e-16
5.54598e-14
3.77127e-12
2.28701e-10
1.21145e-08
5.45241e-07
2.00521e-05
0.000567694
0.0111634
0.0117105
0.0117105
0.0111639
0.000587744
7.37793e-27
7.1502e-25
6.66505e-23
5.88234e-21
4.88214e-19
3.7811e-17
2.70815e-15
1.77487e-13
1.05084e-11
5.53208e-10
2.53728e-08
9.86623e-07
3.12988e-05
0.000763883
0.0129749
0.0137065
0.0137065
0.0129759
0.000795179
4.42839e-26
3.8716e-24
3.2471e-22
2.56973e-20
1.90646e-18
1.31599e-16
8.37863e-15
4.86951e-13
2.55114e-11
1.18612e-09
4.79661e-08
1.64238e-06
4.58409e-05
0.000984518
0.0147547
0.0156918
0.0156919
0.0147564
0.00103036
2.21896e-25
1.76056e-23
1.33804e-21
9.57357e-20
6.40774e-18
3.98276e-16
2.27927e-14
1.1888e-12
5.58137e-11
2.32259e-09
8.3978e-08
2.56893e-06
6.40385e-05
0.00122909
0.0165117
0.0176742
0.0176743
0.0165142
0.00129313
9.63141e-25
6.98175e-23
4.84308e-21
3.1568e-19
1.9216e-17
1.08459e-15
5.62876e-14
2.65916e-12
1.12966e-10
4.24986e-09
1.38827e-07
3.83526e-06
8.63456e-05
0.00149818
0.018257
0.0196652
0.0196653
0.0182608
0.00158452
3.68457e-24
2.46017e-22
1.5708e-20
9.40853e-19
5.25444e-17
2.71691e-15
1.28994e-13
5.56802e-12
2.15878e-10
7.4048e-09
2.20366e-07
5.54344e-06
0.000113638
0.00179704
0.0200274
0.0217055
0.0217057
0.0200329
0.00191068
1.23025e-23
7.60737e-22
4.49841e-20
2.49283e-18
1.28684e-16
6.14492e-15
2.69214e-13
1.0715e-11
3.82794e-10
1.20917e-08
3.31242e-07
7.66849e-06
0.000144701
0.0021086
0.0217289
0.0236855
0.0236858
0.0217366
0.0022533
3.74448e-23
2.15422e-21
1.18549e-19
6.1093e-18
2.93076e-16
1.29972e-14
5.28504e-13
1.9513e-11
6.46362e-10
1.89239e-08
4.80372e-07
1.03049e-05
0.000180249
0.00243792
0.023401
0.0256489
0.0256493
0.0234113
0.00261817
1.05675e-22
5.6785e-21
2.9202e-19
1.40551e-17
6.29396e-16
2.60426e-14
9.87612e-13
3.39935e-11
1.04941e-09
2.86268e-08
6.76996e-07
1.35315e-05
0.000220649
0.00278599
0.0250555
0.0276081
0.0276087
0.0250691
0.00300663
2.80518e-22
1.41307e-20
6.81568e-19
3.07518e-17
1.2903e-15
5.00031e-14
1.77534e-12
5.71925e-11
1.65208e-09
4.21636e-08
9.3288e-07
1.74484e-05
0.000266413
0.00315454
0.0267046
0.0295762
0.0295771
0.026722
0.00342095
7.03149e-22
3.33481e-20
1.51513e-18
6.43563e-17
2.54071e-15
9.25941e-14
3.09022e-12
9.35383e-11
2.53791e-09
6.08238e-08
1.2636e-06
2.21947e-05
0.000318427
0.00354808
0.0283704
0.0315793
0.0315805
0.0283926
0.00386651
1.64173e-21
7.35721e-20
3.16074e-18
1.26904e-16
4.73409e-15
1.62978e-13
5.13656e-12
1.46792e-10
3.7595e-09
8.50389e-08
1.66742e-06
2.76483e-05
0.0003747
0.00394972
0.0299856
0.0335348
0.0335363
0.0300132
0.00432442
3.65822e-21
1.55272e-19
6.3234e-18
2.4061e-16
8.5046e-15
2.77353e-13
8.27913e-12
2.24057e-10
5.43365e-09
1.1638e-07
2.16097e-06
3.39436e-05
0.000436087
0.00436458
0.0315763
0.0354733
0.0354753
0.0316103
0.00480066
7.86409e-21
3.16734e-19
1.22529e-17
4.4282e-16
1.48633e-14
4.60227e-13
1.30418e-11
3.35024e-10
7.71172e-09
1.56781e-07
2.7637e-06
4.12282e-05
0.000503441
0.00479703
0.0331629
0.0374184
0.037421
0.0332042
0.00530047
1.63936e-20
6.26725e-19
2.30648e-17
7.93314e-16
2.53442e-14
7.46878e-13
2.01407e-11
4.92285e-10
1.07809e-08
2.0852e-07
3.49742e-06
4.9659e-05
0.000577601
0.00525066
0.0347413
0.0393686
0.0393719
0.0347909
0.00582827
3.36357e-20
1.20641e-18
4.2027e-17
1.37374e-15
4.17967e-14
1.17435e-12
3.02099e-11
7.04587e-10
1.47257e-08
2.7185e-07
4.35284e-06
5.90244e-05
0.00065603
0.00569055
0.0343012
0.0392818
0.0392858
0.0343602
0.00634658
7.83492e-20
2.48139e-18
7.88335e-17
2.39488e-15
6.85322e-14
1.82405e-12
4.46375e-11
9.92778e-10
1.98143e-08
3.4962e-07
5.35409e-06
6.94764e-05
0.000739047
0.00610628
0.0338918
0.0391976
0.0392026
0.0339613
0.00684534
2.86453e-19
7.19451e-18
1.88083e-16
4.87884e-15
1.2343e-13
2.98559e-12
6.77111e-11
1.41386e-09
2.67119e-08
4.48463e-07
6.55572e-06
8.13644e-05
0.000828073
0.00650884
0.0335246
0.0391527
0.0391588
0.0336059
0.00733691
1.75096e-18
3.68488e-17
7.84065e-16
1.62671e-14
3.30381e-13
6.5572e-12
1.25962e-10
2.30238e-09
3.91713e-08
6.05181e-07
8.26637e-06
9.68355e-05
0.000935002
0.00695503
0.0333729
0.0395006
0.0395082
0.0334697
0.00789003
1.23368e-17
2.45607e-16
4.82223e-15
8.92995e-14
1.5603e-12
2.57577e-11
4.02316e-10
5.94379e-09
8.26661e-08
1.06932e-06
1.25941e-05
0.000130861
0.00114618
0.00783329
0.034645
0.0427556
0.0427671
0.0347758
0.00897944
7.91208e-17
1.55656e-15
3.00009e-14
5.39752e-13
9.02572e-12
1.39658e-10
1.99029e-09
2.59938e-08
3.09397e-07
3.33302e-06
3.21696e-05
0.000273528
0.00198559
0.0115212
0.0451563
0.0647324
0.0647612
0.0454294
0.0135067
4.2293e-16
8.30497e-15
1.59534e-13
2.85406e-12
4.72922e-11
7.21371e-10
1.0057e-08
1.27081e-07
1.44102e-06
1.44869e-05
0.000127172
0.000955336
0.00596274
0.029367
0.10169
0.180467
0.18058
0.102644
0.0353292
1.7807e-15
3.4978e-14
6.71864e-13
1.20124e-11
1.98773e-10
3.02425e-09
4.19823e-08
5.26876e-07
5.9114e-06
5.84783e-05
0.000501132
0.00363434
0.0215892
0.0999121
0.329494
0.645473
0.645916
0.333123
0.1215
5.52923e-15
1.08688e-13
2.08894e-12
3.73657e-11
6.18459e-10
9.40929e-09
1.30559e-07
1.63676e-06
1.83278e-05
0.000180712
0.00154058
0.011084
0.0650806
0.296689
0.967858
1.94842
1.94979
0.978926
0.361768
1.15926e-14
2.28005e-13
4.38443e-12
7.84636e-11
1.29924e-09
1.97736e-08
2.74433e-07
3.44065e-06
3.85206e-05
0.000379617
0.00323298
0.0232204
0.13598
0.617776
2.01095
4.07815
4.08101
2.03414
0.753753
1.53417e-14
3.01733e-13
5.80199e-12
1.03828e-10
1.71914e-09
2.61624e-08
3.63067e-07
4.55129e-06
5.09454e-05
0.000501928
0.00427296
0.0306725
0.179475
0.814527
2.64935
5.3811
5.38487
2.67997
0.993997
1.6702e-14
3.28467e-13
6.31567e-12
1.13014e-10
1.87113e-09
2.84737e-08
3.95117e-07
4.95268e-06
5.54332e-05
0.000546077
0.00464801
0.0333564
0.195107
0.885019
2.87721
5.8461
5.8502
2.91051
1.08012
1.7051e-14
3.35331e-13
6.44767e-12
1.15376e-10
1.91026e-09
2.90692e-08
4.03381e-07
5.05626e-06
5.65918e-05
0.000557471
0.00474467
0.0340457
0.199094
0.902784
2.93382
5.96182
5.966
2.96781
1.10187
1.71263e-14
3.36824e-13
6.4766e-12
1.15898e-10
1.91897e-09
2.92028e-08
4.05247e-07
5.07976e-06
5.68553e-05
0.00056006
0.00476647
0.0341984
0.199947
0.906364
2.94443
5.98376
5.98797
2.97857
1.10631
1.71497e-14
3.37298e-13
6.486e-12
1.16071e-10
1.9219e-09
2.92484e-08
4.05889e-07
5.08787e-06
5.69458e-05
0.000560934
0.00477357
0.0342449
0.200174
0.907101
2.94585
5.987
5.99121
2.98004
1.10727
1.71694e-14
3.37698e-13
6.49387e-12
1.16215e-10
1.92432e-09
2.92854e-08
4.06404e-07
5.09425e-06
5.70152e-05
0.000561581
0.00477858
0.0342751
0.200302
0.907381
2.94585
5.9873
5.99152
2.98007
1.10768
1.71949e-14
3.38201e-13
6.50357e-12
1.16388e-10
1.92716e-09
2.9328e-08
4.06979e-07
5.10118e-06
5.70885e-05
0.000562244
0.00478352
0.0343037
0.200414
0.907586
2.94566
5.9872
5.99142
2.9799
1.108
1.72278e-14
3.38838e-13
6.51557e-12
1.16597e-10
1.93052e-09
2.93771e-08
4.07628e-07
5.10883e-06
5.71673e-05
0.000562938
0.00478854
0.0343316
0.200518
0.907753
2.9454
5.98699
5.99122
2.97968
1.10827
1.72647e-14
3.39541e-13
6.52859e-12
1.1682e-10
1.93404e-09
2.94277e-08
4.08283e-07
5.11638e-06
5.72434e-05
0.000563591
0.00479312
0.0343559
0.200601
0.90784
2.94499
5.98657
5.9908
2.97929
1.10844
1.72955e-14
3.40119e-13
6.53917e-12
1.17e-10
1.93683e-09
2.94672e-08
4.08787e-07
5.12209e-06
5.72996e-05
0.000564056
0.00479619
0.0343703
0.200634
0.907754
2.94423
5.98567
5.9899
2.97854
1.10838
1.73106e-14
3.40401e-13
6.54429e-12
1.17086e-10
1.93815e-09
2.94857e-08
4.09019e-07
5.12462e-06
5.73232e-05
0.000564231
0.00479707
0.0343713
0.200604
0.90746
2.94304
5.98422
5.98846
2.97736
1.10806
1.73155e-14
3.4049e-13
6.54591e-12
1.17112e-10
1.93855e-09
2.9491e-08
4.0908e-07
5.12519e-06
5.73266e-05
0.000564226
0.00479659
0.0343639
0.200534
0.90704
2.94163
5.98246
5.98669
2.97593
1.10757
1.73165e-14
3.40508e-13
6.5462e-12
1.17116e-10
1.9386e-09
2.94913e-08
4.09074e-07
5.12496e-06
5.73214e-05
0.000564141
0.00479548
0.0343525
0.200445
0.906561
2.94011
5.98054
5.98477
2.9744
1.107
1.73158e-14
3.40491e-13
6.54582e-12
1.17108e-10
1.93843e-09
2.94883e-08
4.09022e-07
5.12412e-06
5.73094e-05
0.000563986
0.00479377
0.0343369
0.200334
0.905998
2.93838
5.9782
5.98243
2.97265
1.10633
1.73093e-14
3.40352e-13
6.54293e-12
1.17053e-10
1.93744e-09
2.9472e-08
4.08778e-07
5.12078e-06
5.72683e-05
0.000563538
0.00478952
0.034303
0.200118
0.904969
2.93518
5.97287
5.9771
2.96942
1.10508
1.72688e-14
3.39487e-13
6.5251e-12
1.16714e-10
1.93151e-09
2.93773e-08
4.07403e-07
5.10282e-06
5.70591e-05
0.000561398
0.00477065
0.0341632
0.19928
0.901129
2.92287
5.94893
5.95313
2.95695
1.10037
1.70613e-14
3.35052e-13
6.43377e-12
1.14979e-10
1.90128e-09
2.8896e-08
4.00457e-07
5.01275e-06
5.6021e-05
0.000550914
0.00467955
0.0334988
0.19535
0.883214
2.86471
5.83138
5.83546
2.898
1.07835
1.62433e-14
3.17552e-13
6.07316e-12
1.08128e-10
1.78178e-09
2.69936e-08
3.73012e-07
4.65706e-06
5.19261e-05
0.00050962
0.00432141
0.0308917
0.179951
0.812977
2.63583
5.36509
5.36867
2.66599
0.992023
1.39885e-14
2.69254e-13
5.0768e-12
8.91774e-11
1.45096e-09
2.17228e-08
2.96912e-07
3.6702e-06
4.05582e-05
0.00039493
0.00332629
0.0236446
0.137121
0.617447
1.99765
4.06208
4.06431
2.01911
0.751731
1.03448e-14
1.91135e-13
3.46386e-12
5.8475e-11
9.14566e-10
1.31703e-08
1.73342e-07
2.06662e-06
2.20742e-05
0.000208329
0.00170625
0.0118395
0.0673111
0.298527
0.955934
1.93348
1.9335
0.963238
0.359843
8.08894e-15
1.42812e-13
2.46691e-12
3.95123e-11
5.83511e-10
7.89549e-09
9.71821e-08
1.07897e-06
1.06976e-05
9.35574e-05
0.000710539
0.00458916
0.02447
0.102979
0.317767
0.630497
0.629153
0.31638
0.119523
7.26791e-15
1.25243e-13
2.10479e-12
3.26304e-11
4.63462e-10
5.98418e-09
6.96063e-08
7.21627e-07
6.58459e-06
5.20985e-05
0.000351197
0.00197555
0.00904792
0.032707
0.0889171
0.164228
0.162396
0.0844015
0.0331388
7.05451e-15
1.2068e-13
2.0108e-12
3.08446e-11
4.32317e-10
5.48838e-09
6.24539e-08
6.28964e-07
5.51854e-06
4.13621e-05
0.000258278
0.00130133
0.00508405
0.0147397
0.0308104
0.0467209
0.0447644
0.0254923
0.0110357
7.00428e-15
1.19611e-13
1.98882e-12
3.04275e-11
4.25046e-10
5.37266e-09
6.07853e-08
6.07371e-07
5.27073e-06
3.88777e-05
0.000236937
0.00114829
0.00419981
0.0108295
0.018573
0.0228375
0.0208541
0.0130779
0.00620901
6.97994e-15
1.19118e-13
1.97907e-12
3.02488e-11
4.22021e-10
5.32579e-09
6.01264e-08
5.99059e-07
5.17791e-06
3.79756e-05
0.000229478
0.00109732
0.0039236
0.00971083
0.0154699
0.0175892
0.0155992
0.00992385
0.00481414
6.93315e-15
1.18257e-13
1.96355e-12
2.99883e-11
4.17979e-10
5.26823e-09
5.9381e-08
5.90377e-07
5.08825e-06
3.71694e-05
0.000223313
0.00105853
0.00373186
0.00901626
0.0138126
0.0152977
0.0133103
0.00825199
0.00395995
6.76995e-15
1.15413e-13
1.91516e-12
2.9227e-11
4.06984e-10
5.12354e-09
5.76621e-08
5.72146e-07
4.91799e-06
3.57939e-05
0.000213919
0.00100598
0.00350163
0.00827708
0.0122387
0.0132958
0.011343
0.00675504
0.0031624
6.19609e-15
1.05582e-13
1.75109e-12
2.67055e-11
3.71564e-10
4.67274e-09
5.25181e-08
5.20193e-07
4.46095e-06
3.23627e-05
0.000192516
0.000898966
0.00309336
0.00716561
0.0102366
0.0109076
0.00910752
0.00516579
0.0023328
4.66603e-15
7.94799e-14
1.3176e-12
2.00838e-11
2.79251e-10
3.50896e-09
3.93973e-08
3.89711e-07
3.33609e-06
2.41435e-05
0.000143123
0.00066479
0.00226769
0.005171
0.00718256
0.0075259
0.00616272
0.00333357
0.00144565
2.21856e-15
3.776e-14
6.25476e-13
9.52588e-12
1.32332e-10
1.66121e-09
1.86316e-08
1.8408e-07
1.57361e-06
1.13693e-05
6.72538e-05
0.000311473
0.00105777
0.00239383
0.00328091
0.00340932
0.00276428
0.00145817
0.000617843
7.12115e-16
1.2108e-14
2.00366e-13
3.04848e-12
4.23052e-11
5.30509e-10
5.94339e-09
5.86515e-08
5.00751e-07
3.61284e-06
2.1337e-05
9.8623e-05
0.000334033
0.000752827
0.00102479
0.00106032
0.000855227
0.000445155
0.000186224
1.68397e-16
2.86008e-15
4.72791e-14
7.18557e-13
9.96088e-12
1.24771e-10
1.39625e-09
1.37625e-08
1.17358e-07
8.45627e-07
4.98718e-06
2.3015e-05
7.78e-05
0.000174874
0.000237101
0.000244695
0.000196752
0.000101612
4.21869e-05
3.12408e-17
5.29992e-16
8.7515e-15
1.3286e-13
1.83968e-12
2.3018e-11
2.57286e-10
2.53306e-09
2.15744e-08
1.55263e-07
9.14496e-07
4.21434e-06
1.42236e-05
3.19081e-05
4.31496e-05
4.4457e-05
3.56729e-05
1.83304e-05
7.57371e-06
4.75008e-18
8.04895e-17
1.3276e-15
2.0132e-14
2.78449e-13
3.47995e-12
3.88527e-11
3.8207e-10
3.25029e-09
2.3363e-08
1.37436e-07
6.32537e-07
2.13186e-06
4.77489e-06
6.44516e-06
6.63252e-06
5.31416e-06
2.72121e-06
1.12067e-06
6.10748e-19
1.03368e-17
1.70304e-16
2.5796e-15
3.56381e-14
4.44881e-13
4.96123e-12
4.8731e-11
4.1407e-10
2.97279e-09
1.74668e-08
8.029e-08
2.70258e-07
6.04498e-07
8.14808e-07
8.37736e-07
6.70461e-07
3.42459e-07
1.40711e-07
6.79672e-20
1.14897e-18
1.89083e-17
2.86079e-16
3.94776e-15
4.92244e-14
5.48308e-13
5.37942e-12
4.56559e-11
3.27398e-10
1.92137e-09
8.82147e-09
2.96575e-08
6.62562e-08
8.92078e-08
9.1652e-08
7.32855e-08
3.7362e-08
1.53258e-08
6.66423e-21
1.12523e-19
1.84966e-18
2.7953e-17
3.85297e-16
4.79873e-15
5.33912e-14
5.23212e-13
4.43542e-12
3.17693e-11
1.86224e-10
8.54002e-10
2.86782e-09
6.39975e-09
8.60875e-09
8.83938e-09
7.06276e-09
3.59539e-09
1.47301e-09
5.83648e-22
9.84299e-21
1.61615e-19
2.43963e-18
3.35888e-17
4.17856e-16
4.64376e-15
4.54545e-14
3.84886e-13
2.75362e-12
1.61224e-11
7.38512e-11
2.47723e-10
5.52241e-10
7.42278e-10
7.61781e-10
6.08285e-10
3.09292e-10
1.26598e-10
4.28891e-23
7.22514e-22
1.18508e-20
1.78703e-19
2.45779e-18
3.05434e-17
3.39079e-16
3.31549e-15
2.80441e-14
2.00425e-13
1.17225e-12
5.36407e-12
1.79748e-11
4.00344e-11
5.37769e-11
5.51674e-11
4.40286e-11
2.2367e-11
9.14923e-12
)
;

boundaryField
{
    top
    {
        type            zeroGradient;
    }
    left
    {
        type            fixedValue;
        value           uniform 0;
    }
    bottom
    {
        type            zeroGradient;
    }
    right
    {
        type            zeroGradient;
    }
    frontAndBack
    {
        type            empty;
    }
}


// ************************************************************************* //
