/*--------------------------------*- C++ -*----------------------------------*\
| =========                 |                                                 |
| \\      /  F ield         | OpenFOAM: The Open Source CFD Toolbox           |
|  \\    /   O peration     | Version:  v1806                                 |
|   \\  /    A nd           | Web:      www.OpenFOAM.com                      |
|    \\/     M anipulation  |                                                 |
\*---------------------------------------------------------------------------*/
FoamFile
{
    version     2.0;
    format      ascii;
    class       volScalarField;
    location    "0.095";
    object      T;
}
// * * * * * * * * * * * * * * * * * * * * * * * * * * * * * * * * * * * * * //

dimensions      [0 0 0 1 0 0 0];


internalField   nonuniform List<scalar> 
1881
(
4.37312e-80
3.45912e-78
2.66021e-76
1.95654e-74
1.36865e-72
9.0438e-71
5.5965e-69
3.20769e-67
1.67855e-65
7.86688e-64
3.2154e-62
1.10241e-60
2.98118e-59
5.68896e-58
5.90225e-57
6.41046e-57
6.40754e-57
5.87038e-57
5.64222e-58
6.74432e-78
5.47251e-76
4.32154e-74
3.26797e-72
2.35352e-70
1.60317e-68
1.024e-66
6.0657e-65
3.28447e-63
1.59482e-61
6.76177e-60
2.40782e-58
6.77087e-57
1.34496e-55
1.45248e-54
1.57295e-54
1.57229e-54
1.44499e-54
1.33189e-55
1.03043e-75
8.58244e-74
6.96386e-72
5.41818e-70
4.02004e-68
2.82484e-66
1.86371e-64
1.14175e-62
6.40206e-61
3.22318e-59
1.41878e-57
5.25203e-56
1.53728e-54
3.18222e-53
3.58197e-52
3.86777e-52
3.86628e-52
3.56436e-52
3.14679e-53
1.54827e-73
1.32472e-71
1.10536e-69
8.8558e-68
6.77494e-66
4.91519e-64
3.35244e-62
2.12596e-60
1.23559e-58
6.45634e-57
2.95362e-55
1.1379e-53
3.47123e-52
7.49877e-51
8.81284e-50
9.48815e-50
9.4848e-50
8.77164e-50
7.40521e-51
2.28522e-71
2.01013e-69
1.72619e-67
1.42525e-65
1.12519e-63
8.43523e-62
5.95292e-60
3.91127e-58
2.35842e-56
1.28034e-54
6.09413e-53
2.44643e-51
7.78867e-50
1.75878e-48
2.16243e-47
2.32126e-47
2.32051e-47
2.15286e-47
1.73457e-48
3.30894e-69
2.99457e-67
2.64865e-65
2.25551e-63
1.83903e-61
1.42581e-59
1.04204e-57
7.10018e-56
4.4462e-54
2.51044e-52
1.2447e-50
5.21357e-49
1.73502e-47
4.10327e-46
5.29073e-45
5.66228e-45
5.66064e-45
5.26859e-45
4.04165e-46
4.69324e-67
4.37309e-65
3.98685e-63
3.50433e-61
2.95329e-59
2.36995e-57
1.79532e-55
1.26979e-53
8.26638e-52
4.85989e-50
2.51321e-48
1.10003e-46
3.83364e-45
9.5174e-44
1.29071e-42
1.37713e-42
1.37677e-42
1.28563e-42
9.3626e-44
6.50909e-65
6.24902e-63
5.87654e-61
5.33553e-59
4.65134e-57
3.86666e-55
3.03884e-53
2.23323e-51
1.51304e-49
9.27349e-48
5.0091e-46
2.29511e-44
8.39459e-43
2.19384e-41
3.14049e-40
3.34024e-40
3.33946e-40
3.12888e-40
2.15535e-41
8.80956e-63
8.71993e-61
8.46433e-59
7.94415e-57
7.16945e-55
6.17925e-53
5.04284e-51
3.85461e-49
2.72102e-47
1.741e-45
9.83892e-44
4.72889e-42
1.82012e-40
5.02447e-39
7.62577e-38
8.08447e-38
8.08281e-38
7.5994e-38
4.92951e-39
1.16081e-60
1.18538e-58
1.18849e-56
1.15387e-54
1.07887e-52
9.6489e-51
8.18461e-49
6.51403e-47
4.79722e-45
3.20923e-43
1.90118e-41
9.60921e-40
3.90463e-38
1.14337e-36
1.84992e-35
1.95458e-35
1.95422e-35
1.84396e-35
1.12006e-36
1.48511e-58
1.56547e-56
1.62223e-54
1.63034e-52
1.5805e-50
1.46803e-48
1.29558e-46
1.0749e-44
8.27013e-43
5.79491e-41
3.60703e-39
1.923e-37
8.28223e-36
2.58602e-34
4.4907e-33
4.728e-33
4.72726e-33
4.47729e-33
2.52898e-34
1.83903e-56
2.00211e-54
2.14552e-52
2.23351e-50
2.24662e-48
2.16911e-46
1.99374e-44
1.72654e-42
1.39006e-40
1.02237e-38
6.70508e-37
3.78446e-35
1.73609e-33
5.81747e-32
1.09315e-30
1.14667e-30
1.14651e-30
1.09014e-30
5.67816e-32
2.1961e-54
2.47034e-52
2.73909e-50
2.95539e-48
3.08673e-46
3.1006e-44
2.97146e-42
2.68972e-40
2.27034e-38
1.75713e-36
1.21831e-34
7.31295e-33
3.59483e-31
1.3029e-29
2.67401e-28
2.79414e-28
2.79383e-28
2.66727e-28
1.26904e-29
2.51816e-52
2.92781e-50
3.3604e-48
3.76002e-46
4.08057e-44
4.26831e-42
4.27013e-40
4.0468e-38
3.5891e-36
2.93186e-34
2.15793e-32
1.38521e-30
7.35012e-29
2.90731e-27
6.57869e-26
6.84745e-26
6.84681e-26
6.56368e-26
2.82601e-27
2.75854e-50
3.31583e-48
3.94077e-46
4.57487e-44
5.1623e-42
5.6282e-40
5.88555e-38
5.85052e-36
5.46621e-34
4.72995e-32
3.71405e-30
2.56671e-28
1.48262e-26
6.45989e-25
1.62442e-23
1.68432e-23
1.6842e-23
1.62113e-23
6.26953e-25
2.8696e-48
3.56625e-46
4.38959e-44
5.28901e-42
6.20916e-40
7.06252e-38
7.73087e-36
8.07766e-34
7.97463e-32
7.34106e-30
6.18631e-28
4.63862e-26
2.94305e-24
1.42403e-22
3.99943e-21
4.13201e-21
4.13177e-21
3.99239e-21
1.38131e-22
2.81428e-46
3.6154e-44
4.60874e-42
5.76457e-40
7.04418e-38
8.36671e-36
9.60129e-34
1.05695e-31
1.10643e-29
1.08901e-27
9.91648e-26
8.13476e-24
5.71529e-22
3.08817e-20
9.71535e-19
1.00043e-18
1.00039e-18
9.7009e-19
2.99769e-20
2.57931e-44
3.42349e-42
4.51819e-40
5.86608e-38
7.46339e-36
9.26397e-34
1.11617e-31
1.29779e-29
1.44614e-27
1.53042e-25
1.51682e-23
1.37181e-21
1.07359e-19
6.49914e-18
2.30594e-16
2.36708e-16
2.367e-16
2.30311e-16
6.31799e-18
2.18547e-42
2.99398e-40
4.08757e-38
5.50577e-36
7.29252e-34
9.46399e-32
1.19873e-29
1.47574e-27
1.75741e-25
2.01106e-23
2.18384e-21
2.18994e-19
1.9157e-17
1.30639e-15
5.37462e-14
5.498e-14
5.49787e-14
5.36919e-14
1.27032e-15
1.68907e-40
2.38411e-38
3.36192e-36
4.69194e-34
6.46406e-32
8.76845e-30
1.16829e-27
1.52563e-25
1.94816e-23
2.42163e-21
2.89425e-19
3.22779e-17
3.16847e-15
2.48492e-13
1.29312e-11
1.31657e-11
1.31655e-11
1.29202e-11
2.40549e-13
1.17056e-38
1.69738e-36
2.4653e-34
3.55567e-32
5.08374e-30
7.1954e-28
1.00746e-25
1.39558e-23
1.91305e-21
2.58727e-19
3.4066e-17
4.23104e-15
4.72056e-13
4.53963e-11
3.59489e-09
3.63747e-09
3.63745e-09
3.59253e-09
4.34904e-11
7.11557e-37
1.0549e-34
1.57042e-32
2.32926e-30
3.43919e-28
5.05466e-26
7.40304e-24
1.08317e-21
1.58735e-19
2.32556e-17
3.35978e-15
4.65945e-13
6.12397e-11
8.27501e-09
1.22084e-06
1.22866e-06
1.22865e-06
1.22044e-06
7.9356e-09
3.68572e-35
5.54233e-33
8.38578e-31
1.26746e-28
1.91348e-26
2.88825e-24
4.3702e-22
6.65881e-20
1.02671e-17
1.60208e-15
2.50267e-13
3.86897e-11
6.27954e-09
1.36534e-06
0.000426548
0.000427905
0.000427905
0.000426546
1.36946e-06
1.56556e-33
2.3567e-31
3.57129e-29
5.40894e-27
8.18682e-25
1.23931e-22
1.88069e-20
2.87401e-18
4.44954e-16
7.00023e-14
1.10788e-11
1.70477e-09
2.39773e-07
2.81687e-05
0.00241127
0.0024392
0.0024392
0.00241127
2.8405e-05
5.18694e-32
7.65017e-30
1.13227e-27
1.66739e-25
2.43746e-23
3.526e-21
5.02311e-19
6.99124e-17
9.38586e-15
1.19232e-12
1.39531e-10
1.45133e-08
1.27872e-06
8.90199e-05
0.0043561
0.00444383
0.00444383
0.00435612
9.02952e-05
1.26327e-30
1.76695e-28
2.45682e-26
3.35571e-24
4.47356e-22
5.77218e-20
7.13239e-18
8.32982e-16
9.049e-14
8.9679e-12
7.91527e-10
6.0325e-08
3.80527e-06
0.000186403
0.00634873
0.00653127
0.00653127
0.00634879
0.000190205
2.15718e-29
2.75904e-27
3.46153e-25
4.20039e-23
4.8918e-21
5.41853e-19
5.6488e-17
5.47455e-15
4.86107e-13
3.88546e-11
2.73451e-09
1.64606e-07
8.13857e-06
0.000310723
0.00822838
0.0085308
0.0085308
0.00822854
0.000318859
2.60599e-28
2.99332e-26
3.33937e-24
3.56474e-22
3.61395e-20
3.44989e-18
3.07059e-16
2.51911e-14
1.87912e-12
1.2534e-10
7.31907e-09
3.638e-07
1.4796e-05
0.000463525
0.0100757
0.0105241
0.0105241
0.0100761
0.000478318
2.33153e-27
2.39597e-25
2.37607e-23
2.23916e-21
1.99119e-19
1.6575e-17
1.27961e-15
9.06234e-14
5.81096e-12
3.3195e-10
1.65477e-08
7.00299e-07
2.42007e-05
0.000643603
0.0118966
0.0125153
0.0125153
0.0118973
0.000667801
1.631e-26
1.50661e-24
1.33717e-22
1.12223e-20
8.84757e-19
6.50326e-17
4.41741e-15
2.74401e-13
1.53911e-11
7.67293e-10
3.33162e-08
1.22623e-06
3.68191e-05
0.000850833
0.0137015
0.0145143
0.0145143
0.0137027
0.00088765
9.23681e-26
7.73939e-24
6.21352e-22
4.70021e-20
3.32865e-18
2.19075e-16
1.32848e-14
7.34706e-13
3.65982e-11
1.61681e-09
6.20923e-08
2.01829e-06
5.34699e-05
0.00109034
0.0155373
0.0165722
0.0165723
0.0155393
0.00114381
4.26483e-25
3.25779e-23
2.38166e-21
1.63715e-19
1.05155e-17
6.26573e-16
3.43428e-14
1.7141e-12
7.69544e-11
3.06022e-09
1.05682e-07
3.08662e-06
7.3451e-05
0.00134613
0.0172922
0.0185619
0.018562
0.0172952
0.00141958
1.70949e-24
1.19762e-22
8.02574e-21
5.04975e-19
2.96481e-17
1.61278e-15
8.0606e-14
3.66467e-12
1.49721e-10
5.41369e-09
1.69882e-07
4.50658e-06
9.74061e-05
0.00162294
0.0190162
0.0205374
0.0205376
0.0190207
0.00172034
6.11234e-24
3.94811e-22
2.43924e-20
1.41343e-18
7.63502e-17
3.8177e-15
1.75247e-13
7.31219e-12
2.73992e-10
9.08135e-09
2.61112e-07
6.34561e-06
0.000125679
0.00192096
0.0207203
0.0225095
0.0225097
0.0207266
0.00204664
1.99388e-23
1.1935e-21
6.83363e-20
3.66627e-18
1.83207e-16
8.46801e-15
3.59071e-13
1.38316e-11
4.78232e-10
1.46204e-08
3.87654e-07
8.68764e-06
0.000158741
0.0022414
0.022416
0.0244904
0.0244908
0.0224247
0.00240014
5.9837e-23
3.33925e-21
1.78265e-19
8.9087e-18
4.14298e-16
1.7806e-14
7.01524e-13
2.509e-11
8.04943e-10
2.28225e-08
5.61016e-07
1.16551e-05
0.000197489
0.00258925
0.0241323
0.026513
0.0265135
0.0241439
0.00278674
1.62869e-22
8.51287e-21
4.25842e-19
1.99294e-17
8.6746e-16
3.48764e-14
1.28476e-12
4.29442e-11
1.28715e-09
3.40843e-08
7.82384e-07
1.51787e-05
0.000240288
0.00294722
0.0257892
0.0284818
0.0284826
0.0258044
0.00318751
4.1486e-22
2.03799e-20
9.58752e-19
4.21784e-17
1.72505e-15
6.51435e-14
2.25319e-12
7.06938e-11
1.98837e-09
4.94019e-08
1.06392e-06
1.93689e-05
0.000287893
0.00332026
0.0274181
0.0304322
0.0304332
0.0274374
0.00360815
1.00097e-21
4.63522e-20
2.057e-18
8.53356e-17
3.29014e-15
1.17093e-13
3.81589e-12
1.12778e-10
2.98755e-09
6.99041e-08
1.41786e-06
2.43166e-05
0.000340722
0.00371
0.0290315
0.032378
0.0323793
0.0290558
0.00405072
2.31068e-21
1.01139e-19
4.24552e-18
1.66544e-16
6.06992e-15
2.04153e-13
6.28603e-12
1.75504e-10
4.39148e-09
9.70559e-08
1.85961e-06
3.01376e-05
0.00039934
0.00411865
0.0306413
0.0343326
0.0343343
0.0306715
0.00451799
5.11092e-21
2.12155e-19
8.45148e-18
3.14502e-16
1.08695e-14
3.46553e-13
1.01122e-11
2.67483e-10
6.33986e-09
1.32711e-07
2.40846e-06
3.69809e-05
0.000464587
0.00455013
0.0322652
0.0363164
0.0363187
0.0323021
0.00501472
1.06929e-20
4.2224e-19
1.60139e-17
5.67195e-16
1.86534e-14
5.65791e-13
1.57031e-11
3.95021e-10
8.90301e-09
1.77208e-07
3.05826e-06
4.46687e-05
0.00053419
0.00498805
0.0338407
0.0382533
0.0382562
0.0338854
0.00552224
2.1526e-20
8.10299e-19
2.93211e-17
9.90681e-16
3.10743e-14
8.98821e-13
2.37859e-11
5.70469e-10
1.22577e-08
2.32611e-07
3.82795e-06
5.33338e-05
0.000608877
0.00543269
0.0345697
0.0393444
0.039348
0.034623
0.00604157
4.20117e-20
1.51019e-18
5.22333e-17
1.68662e-15
5.0553e-14
1.39712e-12
3.5323e-11
8.09336e-10
1.66137e-08
3.01221e-07
4.73706e-06
6.30961e-05
0.000688915
0.00586073
0.0341393
0.0392533
0.0392578
0.0342024
0.00654965
7.99373e-20
2.74847e-18
9.10101e-17
2.81306e-15
8.06991e-14
2.13438e-12
5.16394e-11
1.1322e-09
2.22405e-08
3.85915e-07
5.8095e-06
7.40942e-05
0.00077441
0.00627129
0.0337423
0.0391716
0.039177
0.0338163
0.0070457
1.48231e-19
4.88473e-18
1.55161e-16
4.59971e-15
1.26533e-13
3.20867e-12
7.44219e-11
1.56414e-09
2.94521e-08
4.89897e-07
7.07048e-06
8.64576e-05
0.000865364
0.00666435
0.033308
0.0390285
0.0390351
0.0333944
0.00752971
2.65472e-19
8.40161e-18
2.5654e-16
7.30973e-15
1.93253e-13
4.70928e-12
1.04956e-10
2.11955e-09
3.83484e-08
6.12951e-07
8.50136e-06
9.98789e-05
0.000958904
0.00703545
0.0329517
0.038938
0.0389459
0.0330515
0.00799436
4.64298e-19
1.41293e-17
4.15269e-16
1.13883e-14
2.89762e-13
6.79531e-12
1.45744e-10
2.83243e-09
4.93193e-08
7.58721e-07
1.01284e-05
0.000114484
0.00105532
0.00738653
0.0326077
0.0388359
0.0388453
0.0327221
0.00844185
7.97837e-19
2.3369e-17
6.61788e-16
1.74866e-14
4.28673e-13
9.68546e-12
2.00136e-10
3.74735e-09
6.28689e-08
9.31918e-07
1.19862e-05
0.000130457
0.00115532
0.00772317
0.0322798
0.0387309
0.038742
0.0324102
0.0088785
1.34906e-18
3.80473e-17
1.03902e-15
2.64799e-14
6.26145e-13
1.36464e-11
2.72006e-10
4.91288e-09
7.95083e-08
1.13686e-06
1.41016e-05
0.000147888
0.00125877
0.00804286
0.0319257
0.0385782
0.0385911
0.0320735
0.00930163
2.26062e-18
6.10831e-17
1.60489e-15
3.94186e-14
8.99243e-13
1.89197e-11
3.64197e-10
6.35424e-09
9.93505e-08
1.37247e-06
1.64434e-05
0.000166407
0.00136352
0.00834828
0.0316298
0.0384677
0.0384827
0.0317962
0.0097118
4.07112e-18
1.02211e-16
2.5338e-15
5.92266e-14
1.2933e-12
2.61464e-11
4.84837e-10
8.16183e-09
1.23255e-07
1.64546e-06
1.9052e-05
0.000186186
0.00147001
0.0086392
0.0313518
0.0383617
0.0383791
0.0315379
0.0101092
1.00985e-17
2.17054e-16
4.74678e-15
1.00132e-13
2.01194e-12
3.80022e-11
6.65869e-10
1.06776e-08
1.5445e-07
1.9822e-06
2.21096e-05
0.000208271
0.00158334
0.00893696
0.0311427
0.0383562
0.0383764
0.0313508
0.0105203
4.28347e-17
7.76509e-16
1.42736e-14
2.534e-13
4.33338e-12
7.09377e-11
1.10021e-09
1.59423e-08
2.12172e-07
2.54183e-06
2.67507e-05
0.000239475
0.00173714
0.00937285
0.0313652
0.0391216
0.0391458
0.0316045
0.01111
2.38597e-16
4.02339e-15
6.74803e-14
1.06782e-12
1.59201e-11
2.23279e-10
2.93831e-09
3.61137e-08
4.11134e-07
4.27702e-06
3.98142e-05
0.000321258
0.00213704
0.010744
0.0342596
0.044801
0.0448365
0.0345804
0.0128809
1.28364e-15
2.12538e-14
3.47597e-13
5.30943e-12
7.54064e-11
9.91001e-10
1.19867e-08
1.32608e-07
1.33156e-06
1.20155e-05
9.60483e-05
0.000664994
0.00383608
0.0171569
0.0514983
0.0768515
0.0769354
0.0521618
0.0209927
5.87495e-15
9.69091e-14
1.57623e-12
2.38832e-11
3.35274e-10
4.33391e-09
5.12186e-08
5.48746e-07
5.27571e-06
4.49437e-05
0.000333776
0.00211323
0.0110327
0.0449541
0.129396
0.220645
0.220934
0.131504
0.055986
2.14734e-14
3.54075e-13
5.75423e-12
8.70598e-11
1.21927e-09
1.57046e-08
1.84624e-07
1.96307e-06
1.86713e-05
0.000156693
0.00114012
0.00702673
0.0355045
0.140032
0.398183
0.716339
0.717323
0.405192
0.175535
5.90923e-14
9.74733e-13
1.58442e-11
2.39728e-10
3.35672e-09
4.32127e-08
5.07515e-07
5.38776e-06
5.11209e-05
0.000427503
0.00309507
0.0189476
0.0949465
0.371439
1.05402
1.92597
1.92863
1.07292
0.46638
1.14565e-13
1.89043e-12
3.07381e-11
4.6519e-10
6.51482e-09
8.3875e-08
9.85024e-07
1.04546e-05
9.915e-05
0.000828497
0.00599104
0.0366148
0.183092
0.714844
2.02808
3.72296
3.72812
2.0646
0.897925
1.52198e-13
2.51137e-12
4.08333e-11
6.17946e-10
8.6536e-09
1.11401e-07
1.30813e-06
1.38815e-05
0.000131619
0.00109944
0.00794668
0.0485377
0.242534
0.946233
2.68394
4.93259
4.93943
2.73234
1.18875
1.67834e-13
2.76923e-12
4.50235e-11
6.81321e-10
9.54051e-09
1.2281e-07
1.44198e-06
1.53004e-05
0.000145054
0.00121146
0.00875443
0.0534555
0.267006
1.04128
2.95276
5.42828
5.43582
3.00607
1.30827
1.72494e-13
2.84609e-12
4.62728e-11
7.00222e-10
9.80508e-09
1.26214e-07
1.48192e-06
1.57236e-05
0.000149058
0.00124481
0.00899429
0.0549102
0.274203
1.06902
3.03071
5.57206
5.57981
3.08547
1.34321
1.73642e-13
2.8651e-12
4.65831e-11
7.04932e-10
9.87121e-09
1.27067e-07
1.49194e-06
1.58298e-05
0.000150061
0.00125311
0.00905338
0.0552625
0.275903
1.07536
3.04801
5.6041
5.6119
3.10312
1.35125
1.73983e-13
2.87083e-12
4.66774e-11
7.06374e-10
9.89158e-09
1.2733e-07
1.49503e-06
1.58623e-05
0.000150363
0.00125555
0.00907001
0.055355
0.276303
1.07664
3.051
5.60978
5.61759
3.10621
1.35293
1.74212e-13
2.87465e-12
4.67402e-11
7.07329e-10
9.90493e-09
1.27501e-07
1.49699e-06
1.58824e-05
0.000150544
0.00125694
0.00907887
0.055399
0.276458
1.07696
3.05132
5.61052
5.61834
3.10657
1.3534
1.74473e-13
2.87894e-12
4.68091e-11
7.08357e-10
9.91901e-09
1.27676e-07
1.49897e-06
1.59022e-05
0.000150718
0.00125823
0.00908669
0.0554352
0.276571
1.07712
3.05122
5.61047
5.6183
3.1065
1.35368
1.74786e-13
2.88397e-12
4.68888e-11
7.09522e-10
9.93468e-09
1.27868e-07
1.50109e-06
1.5923e-05
0.000150895
0.00125951
0.00909423
0.0554688
0.276668
1.07723
3.051
5.61025
5.61808
3.10632
1.35388
1.75116e-13
2.88922e-12
4.69705e-11
7.107e-10
9.95028e-09
1.28056e-07
1.50313e-06
1.59426e-05
0.000151058
0.00126066
0.00910075
0.055496
0.276736
1.07725
3.05062
5.6098
5.61764
3.10596
1.35397
1.75384e-13
2.89341e-12
4.70353e-11
7.11624e-10
9.96235e-09
1.282e-07
1.50465e-06
1.59569e-05
0.000151174
0.00126144
0.00910475
0.0555096
0.276747
1.07709
3.04991
5.60891
5.61675
3.10526
1.35382
1.75524e-13
2.8956e-12
4.70687e-11
7.12094e-10
9.9684e-09
1.2827e-07
1.50537e-06
1.59633e-05
0.000151221
0.00126169
0.00910542
0.0555058
0.276688
1.07674
3.04882
5.60753
5.61538
3.10417
1.35341
1.75574e-13
2.89637e-12
4.70801e-11
7.12249e-10
9.97028e-09
1.28289e-07
1.50554e-06
1.59642e-05
0.00015122
0.00126158
0.0091038
0.0554901
0.276582
1.07625
3.04749
5.60584
5.61368
3.10283
1.35282
1.75583e-13
2.89648e-12
4.70813e-11
7.12256e-10
9.97018e-09
1.28285e-07
1.50543e-06
1.59624e-05
0.000151194
0.00126128
0.0091009
0.0554677
0.276449
1.07569
3.04602
5.60391
5.61175
3.10133
1.35212
1.75561e-13
2.89608e-12
4.7074e-11
7.12132e-10
9.96819e-09
1.28255e-07
1.50503e-06
1.59574e-05
0.000151138
0.00126073
0.00909621
0.0554347
0.276266
1.07495
3.04409
5.60118
5.60901
3.09938
1.3512
1.7542e-13
2.8936e-12
4.70315e-11
7.11454e-10
9.95819e-09
1.2812e-07
1.50335e-06
1.59385e-05
0.000150948
0.00125904
0.00908324
0.0553513
0.275834
1.07326
3.03948
5.59348
5.6013
3.09467
1.34906
1.74669e-13
2.88056e-12
4.68098e-11
7.07961e-10
9.90746e-09
1.27444e-07
1.49517e-06
1.58492e-05
0.000150079
0.00125161
0.0090284
0.0550107
0.274114
1.06654
3.02062
5.55951
5.56727
3.07544
1.34058
1.71381e-13
2.82345e-12
4.58404e-11
6.9272e-10
9.68665e-09
1.24515e-07
1.45986e-06
1.54657e-05
0.00014637
0.00122011
0.00879768
0.0535874
0.266958
1.03855
2.9413
5.41398
5.42149
2.99454
1.30521
1.60226e-13
2.6296e-12
4.25483e-11
6.4094e-10
8.93641e-09
1.14563e-07
1.3399e-06
1.41638e-05
0.000133787
0.00111333
0.00801612
0.048769
0.24273
0.943685
2.67166
4.91711
4.92374
2.71952
1.18536
1.33344e-13
2.16208e-12
3.46027e-11
5.15885e-10
7.12333e-09
9.04992e-08
1.04969e-06
1.10124e-05
0.000103317
0.000854645
0.00612199
0.0370856
0.183948
0.713322
2.01607
3.70739
3.71192
2.0509
0.894368
9.37222e-14
1.47257e-12
2.2878e-11
3.31251e-10
4.44509e-09
5.49346e-08
6.20581e-07
6.35065e-06
5.82231e-05
0.000471644
0.00331639
0.0197728
0.0968024
0.371636
1.04314
1.91118
1.91258
1.05865
0.462791
6.68239e-14
1.00474e-12
1.49267e-11
2.06102e-10
2.6306e-09
3.08515e-08
3.30146e-07
3.19696e-06
2.77324e-05
0.000212809
0.00142136
0.00808562
0.0380093
0.14126
0.38756
0.701473
0.70077
0.390036
0.171775
5.56264e-14
8.10127e-13
1.16213e-11
1.5411e-10
1.87728e-09
2.08592e-08
2.0972e-07
1.89019e-06
1.51073e-05
0.000105719
0.000638008
0.00325936
0.0137594
0.046369
0.117938
0.204623
0.203051
0.115036
0.0518761
5.22644e-14
7.51727e-13
1.06298e-11
1.38522e-10
1.65152e-09
1.78661e-08
1.73667e-07
1.49925e-06
1.13338e-05
7.37512e-05
0.000404561
0.00182434
0.00657038
0.0183438
0.038661
0.0591405
0.0573107
0.034164
0.016442
5.13955e-14
7.3667e-13
1.03747e-11
1.34517e-10
1.59359e-09
1.70994e-08
1.64452e-07
1.39961e-06
1.03756e-05
6.56764e-05
0.000346007
0.00146777
0.00480593
0.0115721
0.0198561
0.0252258
0.0233333
0.0149677
0.00785792
5.10449e-14
7.30804e-13
1.02782e-11
1.33043e-10
1.5728e-09
1.68308e-08
1.61299e-07
1.36634e-06
1.00641e-05
6.31276e-05
0.000328153
0.00136346
0.00431542
0.00980479
0.0153052
0.0176006
0.0156927
0.0103128
0.00560006
5.05183e-14
7.22727e-13
1.01558e-11
1.3132e-10
1.55039e-09
1.65636e-08
1.58403e-07
1.33812e-06
9.82013e-06
6.12877e-05
0.000316314
0.00130035
0.00404772
0.00895128
0.0134132
0.0148992
0.0129935
0.00839366
0.00452678
4.89426e-14
6.99717e-13
9.82489e-12
1.26921e-10
1.49672e-09
1.59671e-08
1.5242e-07
1.28455e-06
9.39782e-06
5.84058e-05
0.000299664
0.00122128
0.00375124
0.00812134
0.0118018
0.0128412
0.0109779
0.00686759
0.00362055
4.41795e-14
6.31259e-13
8.85779e-12
1.14335e-10
1.34697e-09
1.43518e-08
1.36787e-07
1.15049e-06
8.39472e-06
5.19846e-05
0.000265373
0.00107349
0.00325918
0.00692396
0.00978252
0.0104458
0.00874828
0.00526678
0.00269013
3.31185e-14
4.72986e-13
6.63332e-12
8.55669e-11
1.00727e-09
1.0722e-08
1.02069e-07
8.57174e-07
6.24209e-06
3.85507e-05
0.000196054
0.000788664
0.00237349
0.00496927
0.00686383
0.00721429
0.00593312
0.00344455
0.00170144
1.70229e-14
2.42943e-13
3.40468e-12
4.38852e-11
5.16172e-10
5.48942e-09
5.22028e-08
4.37872e-07
3.1841e-06
1.96299e-05
9.95995e-05
0.000399372
0.00119612
0.00248473
0.00339058
0.00353258
0.00287526
0.0016337
0.000790013
6.16275e-15
8.78768e-14
1.23051e-12
1.58473e-11
1.86227e-10
1.97864e-09
1.87975e-08
1.57501e-07
1.14394e-06
7.04271e-06
3.56754e-05
0.000142752
0.000426308
0.000881684
0.0011952
0.00123924
0.00100281
0.00056288
0.000268828
1.67647e-15
2.38832e-14
3.3413e-13
4.29922e-12
5.04747e-11
5.35775e-10
5.08494e-09
4.25618e-08
3.0879e-07
1.89882e-06
9.60576e-06
3.83761e-05
0.000114374
0.000235883
0.000318495
0.000329265
0.000265507
0.000147932
7.0115e-05
3.61391e-16
5.14342e-15
7.18907e-14
9.24144e-13
1.08396e-11
1.14948e-10
1.08987e-09
9.11321e-09
6.60478e-08
4.05695e-07
2.0499e-06
8.17872e-06
2.43373e-05
5.0092e-05
6.74588e-05
6.96051e-05
5.59958e-05
3.10494e-05
1.46436e-05
6.42047e-17
9.12874e-16
1.27474e-14
1.6371e-13
1.91836e-12
2.03235e-11
1.92507e-10
1.60808e-09
1.16426e-08
7.14384e-08
3.60566e-07
1.43689e-06
4.2701e-06
8.77516e-06
1.17955e-05
1.21541e-05
9.76145e-06
5.39471e-06
2.53565e-06
9.67802e-18
1.37466e-16
1.91775e-15
2.46053e-14
2.88047e-13
3.04866e-12
2.88491e-11
2.40747e-10
1.74127e-09
1.06734e-08
5.38142e-08
2.14219e-07
6.35863e-07
1.30503e-06
1.75175e-06
1.80314e-06
1.44637e-06
7.97418e-07
3.73905e-07
1.2653e-18
1.79541e-17
2.50233e-16
3.20747e-15
3.75126e-14
3.96643e-13
3.7497e-12
3.12606e-11
2.25876e-10
1.38315e-09
6.96657e-09
2.77031e-08
8.21421e-08
1.68398e-07
2.25791e-07
2.32226e-07
1.86095e-07
1.02413e-07
4.79364e-08
1.45954e-19
2.06892e-18
2.88074e-17
3.68896e-16
4.3102e-15
4.553e-14
4.30001e-13
3.58132e-12
2.58516e-11
1.58145e-10
7.95741e-10
3.16114e-09
9.36359e-09
1.91769e-08
2.56895e-08
2.64041e-08
2.11422e-08
1.16189e-08
5.43128e-09
1.50483e-20
2.13095e-19
2.96427e-18
3.79226e-17
4.42661e-16
4.67143e-15
4.40756e-14
3.66732e-13
2.64464e-12
1.61625e-11
8.12457e-11
3.2244e-10
9.54178e-10
1.9524e-09
2.61344e-09
2.68465e-09
2.14822e-09
1.17927e-09
5.50704e-10
1.28515e-21
1.81819e-20
2.52699e-19
3.23001e-18
3.767e-17
3.97184e-16
3.74418e-15
3.11259e-14
2.24263e-13
1.36935e-12
6.87738e-12
2.72705e-11
8.06317e-11
1.64856e-10
2.20539e-10
2.26448e-10
1.81107e-10
9.93365e-11
4.63562e-11
)
;

boundaryField
{
    top
    {
        type            zeroGradient;
    }
    left
    {
        type            fixedValue;
        value           uniform 0;
    }
    bottom
    {
        type            zeroGradient;
    }
    right
    {
        type            zeroGradient;
    }
    frontAndBack
    {
        type            empty;
    }
}


// ************************************************************************* //
