/*--------------------------------*- C++ -*----------------------------------*\
| =========                 |                                                 |
| \\      /  F ield         | OpenFOAM: The Open Source CFD Toolbox           |
|  \\    /   O peration     | Version:  v1806                                 |
|   \\  /    A nd           | Web:      www.OpenFOAM.com                      |
|    \\/     M anipulation  |                                                 |
\*---------------------------------------------------------------------------*/
FoamFile
{
    version     2.0;
    format      ascii;
    class       volScalarField;
    location    "0.095";
    object      T;
}
// * * * * * * * * * * * * * * * * * * * * * * * * * * * * * * * * * * * * * //

dimensions      [0 0 0 1 0 0 0];


internalField   nonuniform List<scalar> 
1881
(
2.16272e-20
2.99726e-20
4.34142e-20
8.66095e-20
4.54006e-19
4.03785e-18
3.46034e-17
2.41176e-16
1.12008e-15
-1.68846e-16
-6.81396e-14
-8.10097e-13
-5.91981e-12
-2.9882e-11
-1.01748e-10
-2.10061e-10
-2.10962e-10
-1.04077e-10
-3.69247e-11
4.1426e-19
4.29874e-19
4.62939e-19
6.96891e-19
3.70536e-18
4.17535e-17
4.8121e-16
5.05095e-15
4.73075e-14
3.89531e-13
2.76942e-12
1.66055e-11
8.13275e-11
3.10841e-10
8.6548e-10
1.57237e-09
1.57447e-09
8.81553e-10
3.91852e-10
1.43864e-19
6.91863e-20
-1.76958e-20
1.09913e-19
3.61512e-18
5.28186e-17
6.58824e-16
7.33674e-15
7.25714e-14
6.29332e-13
4.70117e-12
2.95518e-11
1.51376e-10
6.03313e-10
1.74317e-09
3.25318e-09
3.25956e-09
1.7769e-09
7.57893e-10
-4.50426e-18
-4.82704e-18
-5.27351e-18
-6.13279e-18
-1.17656e-17
-6.9807e-17
-6.39725e-16
-5.56464e-15
-4.18473e-14
-2.60222e-13
-1.24894e-12
-3.88109e-12
-1.45629e-12
5.97207e-11
3.33306e-10
8.32687e-10
8.39091e-10
3.42912e-10
6.8191e-11
-1.04076e-17
-1.01542e-17
-9.93232e-18
-1.17846e-17
-4.33291e-17
-4.44973e-16
-5.015e-15
-5.17323e-14
-4.76248e-13
-3.85382e-12
-2.69215e-11
-1.58582e-10
-7.62984e-10
-2.86571e-09
-7.8509e-09
-1.40902e-08
-1.4105e-08
-7.99412e-09
-3.61801e-09
3.21274e-17
3.64138e-17
4.17251e-17
4.35231e-17
-1.11274e-17
-8.02719e-16
-1.02686e-14
-1.11372e-13
-1.07071e-12
-9.04097e-12
-6.58913e-11
-4.04858e-10
-2.03082e-09
-7.94202e-09
-2.25774e-08
-4.16536e-08
-4.17232e-08
-2.3005e-08
-9.99121e-09
1.831e-16
1.88419e-16
1.94845e-16
2.00549e-16
1.9628e-16
-4.66635e-18
-3.38917e-15
-4.92642e-14
-5.7257e-13
-5.62041e-12
-4.64224e-11
-3.17224e-10
-1.74322e-09
-7.36959e-09
-2.23318e-08
-4.30412e-08
-4.31531e-08
-2.27782e-08
-9.20932e-09
-1.90991e-17
-5.94634e-17
-1.10917e-16
-1.5064e-16
4.72656e-17
3.19381e-15
3.87469e-14
3.93047e-13
3.52114e-12
2.76503e-11
1.87044e-10
1.06462e-09
4.93888e-09
1.78588e-08
4.71328e-08
8.21206e-08
8.21527e-08
4.79636e-08
2.2629e-08
-2.16667e-15
-2.30857e-15
-2.48242e-15
-2.61211e-15
-2.04682e-15
7.33551e-15
1.18129e-13
1.27716e-12
1.2049e-11
9.97565e-11
7.13236e-10
4.30219e-09
2.1203e-08
8.15611e-08
2.28492e-07
4.17101e-07
4.17695e-07
2.32752e-07
1.02748e-07
-3.97278e-15
-3.77265e-15
-3.49691e-15
-3.10378e-15
-1.87801e-15
9.63146e-15
1.45493e-13
1.63714e-12
1.62139e-11
1.40755e-10
1.05287e-09
6.62895e-09
3.40175e-08
1.35841e-07
3.93247e-07
7.35014e-07
7.36419e-07
4.00763e-07
1.70535e-07
1.75261e-14
1.95991e-14
2.21947e-14
2.48982e-14
2.67004e-14
1.68618e-14
-1.10246e-13
-1.26409e-12
-1.01267e-11
-6.69965e-11
-3.57836e-10
-1.43398e-09
-3.56273e-09
-7.50673e-10
3.0821e-08
1.00736e-07
1.01795e-07
3.1854e-08
-2.4966e-09
8.02143e-14
8.19131e-14
8.37564e-14
8.47444e-14
7.90527e-14
-2.9357e-15
-9.36712e-13
-1.04764e-11
-9.71894e-11
-7.87709e-10
-5.51018e-09
-3.25141e-08
-1.5677e-07
-5.90297e-07
-1.62152e-06
-2.91675e-06
-2.92e-06
-1.65128e-06
-7.45133e-07
-4.85944e-14
-6.98021e-14
-9.66208e-14
-1.27268e-13
-1.72637e-13
-3.72599e-13
-2.34394e-12
-2.28562e-11
-2.15791e-10
-1.80841e-09
-1.31045e-08
-8.01192e-08
-4.0015e-07
-1.55911e-06
-4.41902e-06
-8.13673e-06
-8.14959e-06
-4.50184e-06
-1.96148e-06
-1.0283e-12
-1.09005e-12
-1.16401e-12
-1.23923e-12
-1.31952e-12
-1.48831e-12
-2.83537e-12
-1.78273e-11
-1.71187e-10
-1.53824e-09
-1.19328e-08
-7.76313e-08
-4.10085e-07
-1.67947e-06
-4.96527e-06
-9.41652e-06
-9.43664e-06
-5.06049e-06
-2.10277e-06
-1.42832e-12
-1.29848e-12
-1.12943e-12
-9.25051e-13
-6.53187e-13
2.94018e-14
4.75915e-12
4.81955e-11
4.21303e-10
3.23368e-09
2.13537e-08
1.18337e-07
5.32797e-07
1.86375e-06
4.75053e-06
8.03762e-06
8.03679e-06
4.83397e-06
2.37108e-06
9.20349e-12
1.01896e-11
1.13822e-11
1.26542e-11
1.40906e-11
1.6922e-11
3.50769e-11
2.09504e-10
1.80193e-09
1.46294e-08
1.03488e-07
6.18533e-07
3.02241e-06
1.15344e-05
3.20899e-05
5.82877e-05
5.83638e-05
3.26837e-05
1.45401e-05
3.44836e-11
3.48826e-11
3.52282e-11
3.53376e-11
3.52986e-11
3.70348e-11
6.3436e-11
3.54185e-10
3.12606e-09
2.61963e-08
1.91064e-07
1.17642e-06
5.91674e-06
2.32082e-05
6.61791e-05
0.000122401
0.000122601
6.7417e-05
2.91732e-05
-4.02654e-11
-5.11603e-11
-6.44117e-11
-7.89549e-11
-9.47352e-11
-1.11201e-10
-1.19923e-10
-1.55636e-11
1.32695e-09
1.41197e-08
1.15747e-07
7.80971e-07
4.24708e-06
1.78134e-05
5.36733e-05
0.00010309
0.000103325
5.46968e-05
2.22417e-05
-4.79591e-10
-5.05723e-10
-5.35509e-10
-5.64879e-10
-5.93565e-10
-6.26767e-10
-7.25384e-10
-1.48576e-09
-8.03125e-09
-5.84851e-08
-3.92608e-07
-2.23908e-06
-1.04309e-05
-3.79186e-05
-0.000100671
-0.00017632
-0.000176434
-0.000102501
-4.80511e-05
-4.6157e-10
-3.83841e-10
-2.86985e-10
-1.74375e-10
-4.60996e-11
8.20589e-11
1.93109e-11
-2.18064e-09
-2.40062e-08
-2.02032e-07
-1.44134e-06
-8.65478e-06
-4.2468e-05
-0.000162745
-0.000454563
-0.000828184
-0.000829302
-0.000462974
-0.00020505
4.68818e-09
5.15064e-09
5.68659e-09
6.24682e-09
6.82412e-09
7.39034e-09
7.64851e-09
4.5303e-09
-3.02646e-08
-3.23893e-07
-2.42395e-06
-1.49699e-05
-7.53028e-05
-0.000295346
-0.000842198
-0.00155783
-0.00156032
-0.000857856
-0.000371191
1.44678e-08
1.44552e-08
1.43652e-08
1.41369e-08
1.37455e-08
1.31622e-08
1.22388e-08
9.43593e-09
-1.08752e-08
-1.86292e-07
-1.53562e-06
-1.01937e-05
-5.46209e-05
-0.000226373
-0.000675837
-0.00129035
-0.00129306
-0.000688506
-0.000282857
-2.65245e-08
-3.20268e-08
-3.84518e-08
-4.54184e-08
-5.2917e-08
-6.08961e-08
-6.87376e-08
-7.0437e-08
-1.46914e-08
4.78396e-07
3.78598e-06
2.20223e-05
0.000102534
0.000371158
0.00098063
0.00171071
0.00171177
0.000998561
0.000470709
-2.19839e-07
-2.30474e-07
-2.4188e-07
-2.52718e-07
-2.62707e-07
-2.71453e-07
-2.76689e-07
-2.57618e-07
-3.02136e-08
1.83524e-06
1.4777e-05
8.9844e-05
0.000440602
0.00168461
0.0046948
0.00853992
0.00855116
0.00478157
0.00212322
-1.17865e-07
-7.38909e-08
-2.13893e-08
3.85826e-08
1.06627e-07
1.83576e-07
2.73353e-07
4.11811e-07
9.22964e-07
4.37992e-06
2.81487e-05
0.000168307
0.000836459
0.00325496
0.00922466
0.016991
0.0170167
0.00939561
0.00409378
2.32194e-06
2.53488e-06
2.77175e-06
3.01739e-06
3.26962e-06
3.52667e-06
3.78912e-06
4.08601e-06
4.71509e-06
8.15006e-06
3.16864e-05
0.00017425
0.000873804
0.00347691
0.010069
0.0188406
0.0188732
0.010255
0.0043584
5.89056e-06
5.7954e-06
5.64278e-06
5.41116e-06
5.09022e-06
4.67167e-06
4.14634e-06
3.48932e-06
2.55156e-06
4.05297e-07
-7.71378e-06
-3.99979e-05
-0.000138679
-0.000313588
-0.000323975
0.000153353
0.000162428
-0.00033621
-0.000435801
-1.55146e-05
-1.84771e-05
-2.17804e-05
-2.52994e-05
-2.90067e-05
-3.28781e-05
-3.69024e-05
-4.11923e-05
-4.69327e-05
-6.33746e-05
-0.000150855
-0.000630957
-0.00282769
-0.0104998
-0.0288044
-0.0518872
-0.0519539
-0.0293516
-0.0132615
-0.000100528
-0.000105287
-0.000109576
-0.000113119
-0.000115909
-0.00011795
-0.000119278
-0.000120203
-0.000123496
-0.000150832
-0.000346452
-0.00149724
-0.00692655
-0.0263523
-0.0737586
-0.134803
-0.134967
-0.0750527
-0.0330517
1.6749e-05
4.37623e-05
7.13674e-05
9.93159e-05
0.000127611
0.00015624
0.000185149
0.000213883
0.00023835
0.000226096
-4.19866e-05
-0.00177906
-0.0101884
-0.0407475
-0.116132
-0.214411
-0.214498
-0.117585
-0.0503754
0.00138581
0.00141848
0.00145355
0.00148866
0.0015238
0.00155894
0.00159404
0.00162872
0.0016592
0.00165499
0.00140535
-0.000282703
-0.00864066
-0.0396022
-0.11735
-0.220289
-0.220425
-0.118865
-0.0492298
0.00279841
0.00282775
0.00286153
0.00289541
0.00292924
0.00296303
0.00299679
0.00303053
0.00306426
0.00309622
0.00310282
0.00288838
0.00132885
-0.00584024
-0.0267748
-0.0580127
-0.0579675
-0.0266749
-0.00703385
0.00414094
0.00416645
0.00419822
0.00423023
0.00426221
0.00429415
0.00432616
0.00435921
0.00440192
0.00451981
0.00513557
0.00848088
0.0236535
0.0761902
0.200644
0.3563
0.356888
0.204863
0.0958679
0.00540735
0.00542924
0.00545891
0.00548902
0.00551912
0.00554919
0.00557949
0.00561252
0.00567071
0.00592836
0.00753582
0.0167172
0.0595395
0.211532
0.580084
1.0518
1.05335
0.591184
0.265753
0.00659717
0.00661564
0.00664313
0.00667131
0.00669948
0.00672764
0.00675623
0.00678972
0.00686833
0.00730723
0.0102044
0.0270123
0.10615
0.389429
1.08179
1.97467
1.9775
1.10197
0.489044
0.0077094
0.0077246
0.00774984
0.00777602
0.00780221
0.00782842
0.00785528
0.00788938
0.00799019
0.00862583
0.0129275
0.0380721
0.15706
0.584961
1.63534
2.99545
2.99973
1.66551
0.734397
0.00874469
0.00875706
0.00878031
0.0088048
0.00882939
0.00885406
0.00887965
0.00891467
0.0090363
0.00985397
0.0154565
0.048346
0.204475
0.767596
2.15376
3.95331
3.95895
2.19325
0.963461
0.00971578
0.00972676
0.00974934
0.00977349
0.00979783
0.00982231
0.00984787
0.00988452
0.0100233
0.0109845
0.0176107
0.0566091
0.242119
0.912519
2.56583
4.7159
4.72262
2.61268
1.1451
0.0106409
0.01065
0.0106708
0.0106929
0.0107149
0.0107365
0.0107588
0.0107929
0.0109389
0.0119897
0.0192835
0.0623014
0.267219
1.0087
2.83952
5.22307
5.23048
2.89117
1.26544
0.0113888
0.0113799
0.0113828
0.0113876
0.0113924
0.0113971
0.0114029
0.0114212
0.0115568
0.012641
0.020273
0.0654
0.280584
1.05983
2.98515
5.49338
5.50107
3.03904
1.32895
0.0114537
0.0114404
0.0114382
0.0114382
0.0114386
0.011439
0.0114406
0.0114551
0.0115892
0.0126881
0.0204494
0.0663749
0.285456
1.07909
3.04064
5.59685
5.60468
3.09549
1.35308
0.0114571
0.0114442
0.0114414
0.011441
0.011441
0.0114412
0.0114425
0.0114569
0.0115911
0.0126923
0.0204717
0.0665103
0.286156
1.08192
3.04896
5.61259
5.62043
3.10395
1.35661
0.0114572
0.011445
0.0114419
0.0114415
0.0114414
0.0114415
0.0114429
0.0114572
0.011591
0.0126892
0.0204479
0.0663636
0.285423
1.07907
3.04088
5.59771
5.60553
3.09572
1.35303
0.0114564
0.0114448
0.0114415
0.0114409
0.0114408
0.0114409
0.0114422
0.0114564
0.0115897
0.0126846
0.0204194
0.0661924
0.284563
1.07569
3.03121
5.57979
5.58758
3.08587
1.34877
0.0114536
0.0114426
0.0114391
0.0114384
0.0114382
0.0114382
0.0114395
0.0114536
0.0115866
0.0126793
0.0203986
0.0660774
0.283985
1.07339
3.02457
5.56738
5.57515
3.0791
1.34588
0.0114485
0.0114381
0.0114344
0.0114336
0.0114333
0.0114333
0.0114345
0.0114485
0.0115815
0.0126744
0.0203944
0.0660728
0.283958
1.07321
3.02383
5.56572
5.57348
3.07835
1.34566
0.011443
0.0114331
0.0114293
0.0114285
0.0114283
0.0114283
0.0114295
0.0114438
0.0115774
0.0126748
0.0204257
0.0662818
0.284991
1.07714
3.03466
5.58526
5.59305
3.0894
1.35065
0.0114426
0.0114333
0.0114297
0.011429
0.0114291
0.0114294
0.0114309
0.0114456
0.0115808
0.012689
0.0205146
0.0668106
0.287609
1.08727
3.06319
5.63751
5.6454
3.11851
1.36347
0.0114563
0.0114478
0.0114445
0.0114443
0.0114449
0.0114457
0.0114478
0.0114632
0.0116008
0.012725
0.020662
0.0676237
0.29163
1.103
3.108
5.72029
5.72833
3.16423
1.38335
0.0114923
0.0114846
0.0114818
0.0114821
0.0114833
0.0114848
0.0114875
0.0115037
0.0116435
0.0127816
0.020817
0.0683819
0.295364
1.11784
3.15098
5.80068
5.80888
3.20807
1.40205
0.0115494
0.0115422
0.0115397
0.0115402
0.0115417
0.0115435
0.0115466
0.011563
0.0117026
0.0128383
0.0208606
0.0683811
0.295314
1.11819
3.15368
5.80803
5.81627
3.21081
1.40237
0.0116071
0.0116001
0.0115971
0.0115971
0.011598
0.0115992
0.0116016
0.0116168
0.0117513
0.0128499
0.0206206
0.0666897
0.286884
1.08606
3.06478
5.64741
5.6554
3.12009
1.36158
0.0116209
0.0116132
0.0116085
0.0116064
0.0116052
0.0116043
0.0116044
0.0116164
0.0117383
0.0127504
0.0199245
0.0624907
0.266105
1.0058
2.83926
5.23498
5.24225
2.89
1.25996
0.0115258
0.0115163
0.0115084
0.0115026
0.0114975
0.0114927
0.0114887
0.0114949
0.0115964
0.0124685
0.0186725
0.055498
0.231717
0.872347
2.46191
4.54153
4.54757
2.50503
1.09118
0.0112521
0.0112402
0.0112277
0.0112167
0.0112063
0.0111959
0.0111862
0.0111847
0.0112596
0.0119505
0.0168936
0.0462189
0.18646
0.69632
1.96234
3.62075
3.62514
1.99541
0.868738
0.0107481
0.0107333
0.0107157
0.0106988
0.0106822
0.0106657
0.0106496
0.0106396
0.0106855
0.0111799
0.0147505
0.0358795
0.136646
0.502457
1.41076
2.60186
2.60442
1.43276
0.623929
0.00999834
0.00998094
0.0099586
0.00993607
0.0099137
0.00989134
0.00986929
0.0098513
0.00987062
0.0101839
0.012485
0.0260043
0.0899913
0.321132
0.893924
1.64551
1.64634
0.905598
0.395109
0.00902995
0.00901064
0.00898468
0.00895781
0.00893093
0.00890406
0.00887739
0.00885329
0.00885197
0.00902376
0.0103287
0.0178538
0.0527668
0.177102
0.483007
0.884059
0.883492
0.486476
0.21349
0.00790314
0.00788293
0.00785494
0.00782549
0.00779592
0.00776634
0.00773692
0.00770914
0.00769472
0.00777468
0.00842817
0.0120149
0.0277495
0.0813817
0.210057
0.377718
0.376216
0.208071
0.0929182
0.00669256
0.00667248
0.00664407
0.00661385
0.0065834
0.00655297
0.00652268
0.00649355
0.00647295
0.00650577
0.00681932
0.00833753
0.0139502
0.0301103
0.0645153
0.10767
0.105665
0.0596288
0.0284978
0.00546959
0.00545049
0.00542302
0.00539355
0.0053638
0.00533407
0.0053045
0.00527593
0.00525407
0.00527021
0.00545675
0.00619548
0.00797986
0.00991534
0.00839187
0.0039126
0.00173403
0.00245407
0.00339037
0.00429337
0.0042759
0.00425045
0.00422296
0.00419516
0.00416739
0.0041398
0.00411318
0.00409283
0.00410712
0.00427064
0.00487286
0.00602563
0.00570372
-0.00144355
-0.0134196
-0.0155554
-0.0073538
-0.00135762
0.00321121
0.00319588
0.00317332
0.00314881
0.00312399
0.00309923
0.00307465
0.00305102
0.00303339
0.00304942
0.00321496
0.0038537
0.0053107
0.00643037
0.00332085
-0.00318548
-0.00513878
-0.00202887
0.000412952
0.00226223
0.00224945
0.00223049
0.00220979
0.00218884
0.00216794
0.00214723
0.00212739
0.00211293
0.00212898
0.00228454
0.00290993
0.00452405
0.00679149
0.00734658
0.00599921
0.00432713
0.00281757
0.00204277
0.00147778
0.00146782
0.00145293
0.00143664
0.00142014
0.00140371
0.00138747
0.00137195
0.00136077
0.00137433
0.0015024
0.00202614
0.00344007
0.00572436
0.00736995
0.00789561
0.00657275
0.00380461
0.00211698
0.000876493
0.00086936
0.000858657
0.000846924
0.000835051
0.000823253
0.000811614
0.000800516
0.000792544
0.000802284
0.000894124
0.00127063
0.00229158
0.00395724
0.00520399
0.0056728
0.00472565
0.00265104
0.00138288
0.000457791
0.000453219
0.000446339
0.00043879
0.000431164
0.000423606
0.00041617
0.000409095
0.00040399
0.000409941
0.000466988
0.000700276
0.00132606
0.00231119
0.00293057
0.00300605
0.00240894
0.00131754
0.000667823
0.000199753
0.000197214
0.000193387
0.00018919
0.00018496
0.000180782
0.000176687
0.0001728
0.000169968
0.000172976
0.000202896
0.000325196
0.000649974
0.00114264
0.00138792
0.0013149
0.000996426
0.000525683
0.000255768
6.43424e-05
6.3188e-05
6.14475e-05
5.9542e-05
5.76294e-05
5.57501e-05
5.39176e-05
5.21834e-05
5.08971e-05
5.20411e-05
6.4366e-05
0.000115094
0.000249769
0.000451859
0.000542987
0.000496826
0.000363741
0.000182182
7.98669e-05
8.14804e-06
7.77353e-06
7.21007e-06
6.59616e-06
5.98522e-06
5.39115e-06
4.81794e-06
4.27838e-06
3.86086e-06
4.07229e-06
7.17548e-06
2.03147e-05
5.58403e-05
0.000110945
0.000140947
0.000137382
0.000103057
4.78149e-05
1.57587e-05
-6.62448e-06
-6.66222e-06
-6.71776e-06
-6.77582e-06
-6.82976e-06
-6.87775e-06
-6.91977e-06
-6.95745e-06
-7.00094e-06
-7.10368e-06
-7.48479e-06
-8.75702e-06
-1.16846e-05
-1.4889e-05
-1.29437e-05
-6.24669e-06
-2.86999e-06
-3.84274e-06
-4.97743e-06
-5.6646e-06
-5.61575e-06
-5.54132e-06
-5.4585e-06
-5.37345e-06
-5.28774e-06
-5.20217e-06
-5.12047e-06
-5.0676e-06
-5.18401e-06
-6.08663e-06
-9.68857e-06
-1.91959e-05
-3.35672e-05
-4.06439e-05
-3.83493e-05
-2.90435e-05
-1.54613e-05
-7.66628e-06
-2.08272e-06
-2.0451e-06
-1.9882e-06
-1.92565e-06
-1.86258e-06
-1.80034e-06
-1.73941e-06
-1.68174e-06
-1.64057e-06
-1.69111e-06
-2.16774e-06
-4.12479e-06
-9.40203e-06
-1.77289e-05
-2.28796e-05
-2.33939e-05
-1.83771e-05
-9.29912e-06
-3.91793e-06
-9.49937e-08
-8.28259e-08
-6.45651e-08
-4.47231e-08
-2.50569e-08
-6.02825e-09
1.22392e-08
2.93897e-08
4.29455e-08
3.8517e-08
-4.90562e-08
-4.29806e-07
-1.48536e-06
-3.21332e-06
-4.43182e-06
-4.80881e-06
-3.82754e-06
-1.76915e-06
-5.32558e-07
3.26302e-07
3.25623e-07
3.24509e-07
3.2315e-07
3.2159e-07
3.19839e-07
3.17928e-07
3.16054e-07
3.15518e-07
3.23581e-07
3.72068e-07
5.5989e-07
1.05667e-06
1.83386e-06
2.32055e-06
2.37409e-06
1.9026e-06
1.04876e-06
5.38793e-07
1.65512e-07
1.62942e-07
1.59041e-07
1.54731e-07
1.50359e-07
1.46014e-07
1.41735e-07
1.37683e-07
1.3494e-07
1.39661e-07
1.79217e-07
3.40005e-07
7.7322e-07
1.45875e-06
1.89025e-06
1.94612e-06
1.53567e-06
7.79266e-07
3.30118e-07
1.16329e-08
1.0638e-08
9.145e-09
7.52102e-09
5.90865e-09
4.34544e-09
2.84187e-09
1.42916e-09
3.23362e-10
7.7462e-10
8.41508e-09
4.11851e-08
1.30349e-07
2.68612e-07
3.4091e-07
3.27707e-07
2.41241e-07
1.05684e-07
2.80843e-08
-2.42229e-08
-2.41548e-08
-2.40443e-08
-2.39113e-08
-2.37617e-08
-2.35972e-08
-2.34206e-08
-2.32496e-08
-2.32014e-08
-2.39338e-08
-2.83451e-08
-4.55098e-08
-9.12338e-08
-1.63828e-07
-2.12227e-07
-2.22544e-07
-1.79615e-07
-9.63804e-08
-4.63686e-08
-1.01428e-08
-9.94427e-09
-9.64347e-09
-9.31186e-09
-8.97656e-09
-8.64476e-09
-8.31932e-09
-8.01197e-09
-7.802e-09
-8.14147e-09
-1.10437e-08
-2.28535e-08
-5.45114e-08
-1.0347e-07
-1.30097e-07
-1.26945e-07
-9.64023e-08
-4.72606e-08
-1.87883e-08
1.04889e-09
1.09892e-09
1.17328e-09
1.25321e-09
1.33129e-09
1.40558e-09
1.47571e-09
1.54129e-09
1.59929e-09
1.6306e-09
1.54412e-09
1.03823e-09
-4.03604e-10
-2.44192e-09
-2.44639e-09
-4.73418e-10
1.06501e-09
1.82004e-09
2.02848e-09
1.96276e-09
1.9426e-09
1.91166e-09
1.87697e-09
1.84111e-09
1.8048e-09
1.76843e-09
1.73396e-09
1.71459e-09
1.78501e-09
2.27632e-09
4.22635e-09
9.41009e-09
1.73755e-08
2.16355e-08
2.09828e-08
1.59762e-08
8.07026e-09
3.49269e-09
2.70746e-10
2.57634e-10
2.3793e-10
2.16425e-10
1.94971e-10
1.74057e-10
1.53837e-10
1.34823e-10
1.2053e-10
1.31232e-10
2.58096e-10
7.90791e-10
2.23065e-09
4.44312e-09
5.53833e-09
5.21725e-09
3.8154e-09
1.72428e-09
5.3579e-10
-2.67458e-10
-2.66722e-10
-2.65505e-10
-2.64018e-10
-2.62324e-10
-2.60443e-10
-2.58412e-10
-2.56472e-10
-2.56221e-10
-2.66648e-10
-3.27353e-10
-5.61542e-10
-1.17696e-09
-2.11034e-09
-2.58215e-09
-2.45615e-09
-1.85872e-09
-9.65079e-10
-4.51018e-10
-8.54136e-11
-8.31599e-11
-7.97572e-11
-7.60182e-11
-7.22544e-11
-6.85488e-11
-6.49327e-11
-6.15303e-11
-5.91874e-11
-6.27525e-11
-9.39444e-11
-2.21608e-10
-5.65258e-10
-1.09778e-09
-1.38421e-09
-1.34538e-09
-1.01412e-09
-4.84461e-10
-1.78594e-10
3.18022e-11
3.1971e-11
3.22084e-11
3.24443e-11
3.26495e-11
3.28167e-11
3.29481e-11
3.30687e-11
3.33416e-11
3.46758e-11
4.10342e-11
6.45894e-11
1.25338e-10
2.1525e-10
2.55346e-10
2.33564e-10
1.73959e-10
9.42612e-11
4.9117e-11
1.60822e-11
1.57421e-11
1.52272e-11
1.46591e-11
1.40842e-11
1.3515e-11
1.29566e-11
1.24314e-11
1.20907e-11
1.28015e-11
1.84463e-11
4.13441e-11
1.02999e-10
1.99275e-10
2.53908e-10
2.51786e-10
1.92767e-10
9.37032e-11
3.59827e-11
-4.11243e-12
-4.15818e-12
-4.22451e-12
-4.29355e-12
-4.3581e-12
-4.41632e-12
-4.46834e-12
-4.51723e-12
-4.58306e-12
-4.77686e-12
-5.57943e-12
-8.45565e-12
-1.57794e-11
-2.65059e-11
-3.11222e-11
-2.81933e-11
-2.10041e-11
-1.17248e-11
-6.47384e-12
-2.60481e-12
-2.55298e-12
-2.47447e-12
-2.38773e-12
-2.29981e-12
-2.21259e-12
-2.12691e-12
-2.04648e-12
-1.99655e-12
-2.12188e-12
-3.07166e-12
-6.91035e-12
-1.72651e-11
-3.3553e-11
-4.31916e-11
-4.35258e-11
-3.36742e-11
-1.6454e-11
-6.35897e-12
6.42124e-13
6.49156e-13
6.59344e-13
6.69945e-13
6.79853e-13
6.88787e-13
6.96776e-13
7.04357e-13
7.15069e-13
7.48599e-13
8.90742e-13
1.40561e-12
2.73385e-12
4.7434e-12
5.81431e-12
5.62643e-12
4.3507e-12
2.37323e-12
1.21822e-12
3.83366e-13
3.7537e-13
3.63276e-13
3.49935e-13
3.36434e-13
3.23066e-13
3.09961e-13
2.9771e-13
2.90335e-13
3.10947e-13
4.63318e-13
1.078e-12
2.73739e-12
5.35316e-12
6.91498e-12
6.99485e-12
5.41935e-12
2.63818e-12
1.00678e-12
-1.06334e-13
-1.06939e-13
-1.07789e-13
-1.08634e-13
-1.0937e-13
-1.09974e-13
-1.10454e-13
-1.10908e-13
-1.11989e-13
-1.17359e-13
-1.43159e-13
-2.39836e-13
-4.94443e-13
-8.92685e-13
-1.1401e-12
-1.16556e-12
-9.25195e-13
-4.90999e-13
-2.32671e-13
-3.8337e-14
-3.7209e-14
-3.55106e-14
-3.36464e-14
-3.17717e-14
-2.99279e-14
-2.8131e-14
-2.64455e-14
-2.5313e-14
-2.72806e-14
-4.38322e-14
-1.11671e-13
-2.95548e-13
-5.84612e-13
-7.51237e-13
-7.50308e-13
-5.74774e-13
-2.74067e-13
-9.89919e-14
2.21143e-14
2.20049e-14
2.18312e-14
2.16283e-14
2.14083e-14
2.11748e-14
2.09323e-14
2.07083e-14
2.06894e-14
2.19387e-14
2.91989e-14
5.74801e-14
1.33033e-13
2.51697e-13
3.23278e-13
3.2786e-13
2.56291e-13
1.29334e-13
5.45537e-14
1.29994e-15
1.14429e-15
9.11757e-16
6.58971e-16
4.07888e-16
1.64297e-16
-7.02583e-17
-2.91791e-16
-4.72547e-16
-4.4904e-16
5.28619e-16
4.89121e-15
1.69437e-14
3.56354e-14
4.45634e-14
4.14558e-14
2.96652e-14
1.23195e-14
2.61718e-15
-4.37275e-15
-4.32114e-15
-4.24234e-15
-4.15429e-15
-4.0637e-15
-3.9724e-15
-3.8816e-15
-3.79788e-15
-3.76622e-15
-4.04439e-15
-5.78726e-15
-1.26603e-14
-3.10603e-14
-5.97236e-14
-7.58585e-14
-7.503e-14
-5.74602e-14
-2.81612e-14
-1.11248e-14
3.77561e-16
3.96009e-16
4.23326e-16
4.52667e-16
4.81356e-16
5.08697e-16
5.34595e-16
5.592e-16
5.83423e-16
6.11686e-16
6.60641e-16
7.73565e-16
1.0105e-15
1.37079e-15
1.7663e-15
2.05614e-15
1.86166e-15
1.27734e-15
8.85319e-16
5.72245e-16
5.62898e-16
5.48748e-16
5.33089e-16
5.17166e-16
5.01318e-16
4.85728e-16
4.71349e-16
4.64713e-16
5.03381e-16
7.56034e-16
1.75897e-15
4.44695e-15
8.61445e-15
1.08621e-14
1.05762e-14
7.99749e-15
3.85422e-15
1.46411e-15
-9.75252e-17
-9.8377e-17
-9.96047e-17
-1.00873e-16
-1.02046e-16
-1.03091e-16
-1.04016e-16
-1.04932e-16
-1.06575e-16
-1.13093e-16
-1.42768e-16
-2.52481e-16
-5.38011e-16
-9.69206e-16
-1.18391e-15
-1.12004e-15
-8.44056e-16
-4.36961e-16
-2.0316e-16
-1.60225e-17
-1.54405e-17
-1.45683e-17
-1.36154e-17
-1.26623e-17
-1.17302e-17
-1.08272e-17
-9.98795e-18
-9.45145e-18
-1.06049e-17
-1.97295e-17
-5.69765e-17
-1.57951e-16
-3.16083e-16
-4.03695e-16
-3.97362e-16
-3.00799e-16
-1.40824e-16
-4.84241e-17
)
;

boundaryField
{
    top
    {
        type            zeroGradient;
    }
    left
    {
        type            fixedValue;
        value           uniform 0;
    }
    bottom
    {
        type            zeroGradient;
    }
    right
    {
        type            zeroGradient;
    }
    frontAndBack
    {
        type            empty;
    }
}


// ************************************************************************* //
