/*--------------------------------*- C++ -*----------------------------------*\
| =========                 |                                                 |
| \\      /  F ield         | OpenFOAM: The Open Source CFD Toolbox           |
|  \\    /   O peration     | Version:  v1806                                 |
|   \\  /    A nd           | Web:      www.OpenFOAM.com                      |
|    \\/     M anipulation  |                                                 |
\*---------------------------------------------------------------------------*/
FoamFile
{
    version     2.0;
    format      ascii;
    class       volScalarField;
    location    "0.055";
    object      T;
}
// * * * * * * * * * * * * * * * * * * * * * * * * * * * * * * * * * * * * * //

dimensions      [0 0 0 1 0 0 0];


internalField   nonuniform List<scalar> 
1881
(
2.63041e-111
6.82913e-110
1.71611e-108
4.01339e-107
8.68434e-106
1.72695e-104
3.1308e-103
5.12474e-102
7.48491e-101
9.61064e-100
1.06429e-98
9.90827e-98
7.48211e-97
4.34445e-96
1.77733e-95
4.3456e-95
4.33394e-95
1.76778e-95
4.99465e-96
2.52578e-109
6.56844e-108
1.65327e-106
3.87269e-105
8.39347e-104
1.67181e-102
3.03576e-101
4.97721e-100
7.2812e-99
9.36418e-98
1.03866e-96
9.68514e-96
7.32514e-95
4.25984e-94
1.74524e-93
4.27223e-93
4.26115e-93
1.73642e-93
4.89925e-94
2.4123e-107
6.28373e-106
1.58414e-104
3.71673e-103
8.06838e-102
1.60964e-100
2.92757e-99
4.80755e-98
7.04428e-97
9.074e-96
1.00808e-94
9.41487e-94
7.13186e-93
4.15375e-92
1.70422e-91
4.17675e-91
4.1663e-91
1.69614e-91
4.77903e-92
2.26787e-105
5.9173e-104
1.49416e-102
3.51125e-101
7.63459e-100
1.52556e-98
2.7791e-97
4.57108e-96
6.70857e-95
8.65541e-94
9.63112e-93
9.00918e-92
6.83523e-91
3.98707e-90
1.63818e-89
4.01967e-89
4.00997e-89
1.63092e-89
4.58892e-90
2.09807e-103
5.48337e-102
1.38682e-100
3.26425e-99
7.10897e-98
1.42282e-96
2.59612e-95
4.277e-94
6.28708e-93
8.12464e-92
9.05499e-91
8.48371e-90
6.44666e-89
3.76615e-88
1.54964e-87
3.80694e-87
3.79809e-87
1.54324e-87
4.33621e-88
1.90943e-101
4.99865e-100
1.26627e-98
2.98531e-97
6.51197e-96
1.30544e-94
2.38579e-93
3.93683e-92
5.79638e-91
7.50258e-90
8.3751e-89
7.85921e-88
5.98149e-87
3.49975e-86
1.4421e-85
3.54697e-85
3.53904e-85
1.43658e-85
4.0309e-86
1.70893e-99
4.48123e-98
1.13702e-96
2.68494e-95
5.86625e-94
1.17789e-92
2.15618e-91
3.5637e-90
5.25547e-89
6.81342e-88
7.61801e-87
7.16015e-86
5.45803e-85
3.19838e-84
1.31982e-83
3.25009e-83
3.24309e-83
1.31516e-83
3.68504e-84
1.50361e-97
3.94942e-96
1.00371e-94
2.37397e-93
5.19521e-92
1.04484e-90
1.91572e-89
3.17142e-88
4.68453e-87
6.08304e-86
6.81231e-85
6.41311e-84
4.89628e-83
2.8736e-82
1.18752e-81
2.92779e-81
2.92173e-81
1.18367e-81
3.31195e-82
1.30012e-95
3.42063e-94
8.70731e-93
2.06279e-91
4.52155e-90
9.10834e-89
1.67273e-87
2.77364e-86
4.10362e-85
5.33731e-84
5.98682e-83
5.64501e-82
4.31666e-81
2.53733e-80
1.05007e-79
2.59202e-79
2.58687e-79
1.04697e-79
2.92532e-80
1.10436e-93
2.91044e-92
7.42062e-91
1.76082e-89
3.86592e-88
7.8003e-87
1.43484e-85
2.38305e-84
3.53146e-83
4.60059e-82
5.16877e-81
4.88147e-80
3.73871e-79
2.201e-78
9.12209e-78
2.25441e-77
2.25011e-77
9.09771e-78
2.53837e-78
9.21186e-92
2.43178e-90
6.21028e-89
1.47602e-87
3.24591e-86
6.55996e-85
1.20865e-83
2.01065e-82
2.98444e-81
3.89427e-80
4.3823e-79
4.14537e-78
3.17996e-77
1.87496e-76
7.7822e-76
1.92557e-75
1.92205e-75
7.76356e-76
2.16302e-76
7.54267e-90
1.99449e-88
5.10182e-87
1.21454e-85
2.67525e-84
5.41548e-83
9.99409e-82
1.66528e-80
2.47583e-79
3.23586e-78
3.64728e-77
3.45564e-76
2.65509e-75
1.56794e-74
6.51752e-74
1.61454e-73
1.61172e-73
6.50368e-74
1.80936e-74
6.05988e-88
1.60509e-86
4.11245e-85
9.80613e-84
2.1635e-82
4.38671e-81
8.10876e-80
1.35334e-78
2.01534e-77
2.63831e-76
2.97858e-75
2.82665e-74
2.17531e-73
1.28667e-72
5.35655e-72
1.32843e-71
1.32621e-71
5.34661e-72
1.48519e-72
4.77503e-86
1.2669e-84
3.25127e-83
7.76531e-82
1.71604e-80
3.48514e-79
6.45277e-78
1.07872e-76
1.60902e-75
2.10982e-74
2.38582e-73
2.26783e-72
1.74815e-71
1.03577e-70
4.31939e-70
1.07221e-69
1.0705e-69
4.3125e-70
1.19588e-70
3.68864e-84
9.80318e-83
2.51992e-81
6.0284e-80
1.33439e-78
2.71447e-77
5.03411e-76
8.42941e-75
1.25939e-73
1.65409e-72
1.87355e-71
1.78389e-70
1.37757e-69
8.17855e-69
3.41834e-68
8.48839e-68
8.47548e-68
3.41373e-68
9.44444e-69
2.79211e-82
7.43304e-81
1.9138e-79
4.5859e-78
1.01676e-76
2.07172e-75
3.84842e-74
6.45461e-73
9.65935e-72
1.27076e-70
1.44181e-69
1.37531e-68
1.06436e-67
6.33837e-67
2.66002e-66
6.59506e-66
6.58552e-66
2.65703e-66
7.31904e-67
2.06995e-80
5.51987e-79
1.42355e-77
3.41674e-76
7.58783e-75
1.54863e-73
2.88145e-72
4.84078e-71
7.25628e-70
9.56241e-69
1.08693e-67
1.0391e-66
8.06905e-66
4.83595e-65
2.05019e-64
5.04372e-64
5.03681e-64
2.04822e-64
5.57992e-65
1.5022e-78
4.01266e-77
1.03654e-75
2.49197e-74
5.54323e-73
1.1332e-71
2.11198e-70
3.55398e-69
5.33642e-68
7.04514e-67
8.0256e-66
7.69897e-65
6.02242e-64
3.6718e-63
1.60404e-62
3.83868e-62
3.83376e-62
1.60245e-62
4.224e-63
1.0666e-76
2.85393e-75
7.38436e-74
1.77821e-72
3.96205e-71
8.11301e-70
1.51456e-68
2.55297e-67
3.84025e-66
5.08077e-65
5.80718e-64
5.61179e-63
4.4771e-62
2.87174e-61
1.36934e-60
3.0144e-60
3.01089e-60
1.36728e-60
3.27184e-61
7.40519e-75
1.9848e-73
5.14402e-72
1.24076e-70
2.76913e-69
5.67974e-68
1.0621e-66
1.79348e-65
2.7034e-64
3.58787e-63
4.12895e-62
4.06827e-61
3.43764e-60
2.53676e-59
1.48102e-58
2.69646e-58
2.69383e-58
1.47695e-58
2.81751e-59
5.02432e-73
1.34895e-71
3.50187e-70
8.46068e-69
1.8914e-67
3.88595e-66
7.27941e-65
1.23167e-63
1.86193e-62
2.48623e-61
2.91199e-60
3.03381e-59
2.99355e-58
2.95403e-57
2.29212e-56
3.24442e-56
3.24209e-56
2.2828e-56
3.13873e-57
3.32931e-71
8.95397e-70
2.32829e-68
5.63461e-67
1.26174e-65
2.5968e-64
4.87392e-63
8.26856e-62
1.25662e-60
1.70354e-59
2.09701e-58
2.53797e-57
3.43062e-56
4.85046e-55
4.69145e-54
5.59384e-54
5.59096e-54
4.66951e-54
4.94728e-55
2.1532e-69
5.8008e-68
1.51088e-66
3.66257e-65
8.21559e-64
1.69404e-62
3.18729e-61
5.4319e-60
8.35938e-59
1.1817e-57
1.66326e-56
2.74536e-55
5.46961e-54
9.97574e-53
1.08749e-51
1.20816e-51
1.20767e-51
1.08234e-51
9.96304e-53
1.35821e-67
3.66536e-66
9.56283e-65
2.32211e-63
5.21829e-62
1.07844e-60
2.03697e-59
3.50686e-58
5.58223e-57
8.83758e-56
1.66008e-54
4.09645e-53
1.07822e-51
2.24406e-50
2.62167e-49
2.84397e-49
2.84296e-49
2.60966e-49
2.22297e-50
8.35012e-66
2.2573e-64
5.89924e-63
1.43505e-61
3.2317e-60
6.70111e-59
1.27597e-57
2.25537e-56
3.93356e-55
8.03953e-54
2.26423e-52
7.59167e-51
2.31018e-49
5.1774e-48
6.3801e-47
6.8606e-47
6.85842e-47
6.35227e-47
5.11154e-48
4.99949e-64
1.35388e-62
3.54445e-61
8.63944e-60
1.95122e-58
4.07182e-57
7.91e-56
1.50066e-54
3.24602e-53
9.84004e-52
3.88679e-50
1.53606e-48
5.05949e-47
1.19867e-45
1.55389e-44
1.66327e-44
1.6628e-44
1.54747e-44
1.18116e-45
2.91286e-62
7.9022e-61
2.07274e-59
5.06509e-58
1.14973e-56
2.43532e-55
4.98766e-54
1.12479e-52
3.51364e-51
1.54115e-49
7.37069e-48
3.17861e-46
1.10863e-44
2.76655e-43
3.77979e-42
4.0316e-42
4.03057e-42
3.76509e-42
2.72192e-43
1.6501e-60
4.48498e-59
1.1791e-57
2.89297e-56
6.63916e-55
1.46112e-53
3.41557e-52
1.06639e-50
4.93699e-49
2.71539e-47
1.43469e-45
6.56821e-44
2.41372e-42
6.35376e-41
9.18342e-40
9.76245e-40
9.76023e-40
9.14988e-40
6.24174e-41
9.08088e-59
2.4735e-57
6.52421e-56
1.61364e-54
3.80438e-53
9.22169e-52
2.82758e-50
1.31971e-48
7.99338e-47
4.94594e-45
2.78571e-43
1.34427e-41
5.20949e-40
1.45161e-38
2.23066e-37
2.36323e-37
2.36276e-37
2.22303e-37
1.42369e-38
4.85074e-57
1.325e-55
3.51557e-54
8.85837e-53
2.23454e-51
6.69681e-50
3.0266e-48
1.93529e-46
1.35355e-44
8.98766e-43
5.34026e-41
2.71627e-39
1.11356e-37
3.30021e-36
5.42439e-35
5.72652e-35
5.72552e-35
5.40711e-35
3.23093e-36
2.51332e-55
6.89618e-54
1.85308e-52
4.88676e-51
1.43998e-49
6.1127e-48
3.94552e-46
3.0202e-44
2.291e-42
1.60755e-40
1.00633e-38
5.40961e-37
2.35647e-35
7.47095e-34
1.3225e-32
1.39106e-32
1.39085e-32
1.3186e-32
7.29998e-34
1.26274e-53
3.49513e-52
9.67478e-51
2.83914e-49
1.11475e-47
6.92467e-46
5.6067e-44
4.73331e-42
3.80637e-40
2.81316e-38
1.85912e-36
1.06048e-34
4.93545e-33
1.68505e-31
3.23581e-30
3.39084e-30
3.3904e-30
3.22702e-30
1.64324e-31
6.15637e-52
1.73687e-50
5.15325e-49
1.87658e-47
1.07134e-45
8.81006e-44
8.07321e-42
7.26745e-40
6.15672e-38
4.79798e-36
3.35931e-34
2.04368e-32
1.0226e-30
3.78656e-29
7.94221e-28
8.29155e-28
8.29065e-28
7.92259e-28
3.68591e-29
2.9219e-50
8.60788e-49
2.96117e-47
1.50144e-45
1.19243e-43
1.15309e-41
1.13837e-39
1.0807e-37
9.64251e-36
7.94689e-34
5.92172e-32
3.86487e-30
2.0935e-28
8.46534e-27
1.95085e-25
2.02919e-25
2.02901e-25
1.94652e-25
8.22878e-27
1.36155e-48
4.40564e-47
1.963e-45
1.42013e-43
1.39678e-41
1.48138e-39
1.54667e-37
1.54491e-35
1.45485e-33
1.27303e-31
1.01501e-29
7.15285e-28
4.22276e-26
1.87591e-24
4.77573e-23
4.94996e-23
4.9496e-23
4.76637e-23
1.82195e-24
6.34578e-47
2.45566e-45
1.53216e-43
1.45539e-41
1.6174e-39
1.82545e-37
2.00432e-35
2.10841e-33
2.10221e-31
1.96211e-29
1.68376e-27
1.28949e-25
8.34714e-24
4.09593e-22
1.1613e-20
1.19948e-20
1.19941e-20
1.15931e-20
3.97613e-22
3.05539e-45
1.5555e-43
1.3312e-41
1.49553e-39
1.79109e-37
2.12733e-35
2.45428e-33
2.72481e-31
2.8873e-29
2.88906e-27
2.68407e-25
2.24698e-23
1.60339e-21
8.75376e-20
2.81382e-18
2.89567e-18
2.89555e-18
2.80966e-18
8.48951e-20
1.57953e-43
1.10506e-41
1.18574e-39
1.47024e-37
1.85933e-35
2.31548e-33
2.80912e-31
3.30014e-29
3.73098e-27
4.02206e-25
4.06683e-23
3.74022e-21
2.9607e-19
1.82542e-17
6.91489e-16
7.08583e-16
7.08561e-16
6.90609e-16
1.76553e-17
8.91436e-42
8.24492e-40
1.01691e-37
1.34375e-35
1.77936e-33
2.32061e-31
2.9637e-29
3.69305e-27
4.4702e-25
5.21318e-23
5.76087e-21
5.8502e-19
5.19732e-17
3.73642e-15
1.7827e-13
1.81767e-13
1.81763e-13
1.7808e-13
3.59582e-15
5.32886e-40
6.00698e-38
8.05849e-36
1.11605e-33
1.54079e-31
2.10233e-29
2.8274e-27
3.74211e-25
4.85992e-23
6.1464e-21
7.44658e-19
8.41538e-17
8.59351e-15
7.62027e-13
4.94015e-11
5.01154e-11
5.01148e-11
4.93615e-11
7.30273e-13
3.16558e-38
4.03904e-36
5.71676e-34
8.21993e-32
1.17853e-29
1.67826e-27
2.37283e-25
3.33188e-23
4.63927e-21
6.36171e-19
8.4734e-17
1.08063e-14
1.32115e-12
1.54738e-10
1.42418e-08
1.43882e-08
1.43881e-08
1.42347e-08
1.48953e-10
1.74693e-36
2.39789e-34
3.51547e-32
5.20422e-30
7.70059e-28
1.13766e-25
1.68076e-23
2.48822e-21
3.691e-19
5.45988e-17
8.00145e-15
1.17225e-12
1.79436e-10
2.90143e-08
3.84942e-06
3.87751e-06
3.8775e-06
3.84867e-06
2.84339e-08
8.44021e-35
1.20442e-32
1.80075e-30
2.71289e-28
4.09406e-26
6.19229e-24
9.41447e-22
1.44403e-19
2.23883e-17
3.50377e-15
5.55273e-13
9.23648e-11
1.75749e-08
3.90516e-06
0.000829221
0.000833106
0.000833106
0.000829219
3.92024e-06
3.37705e-33
4.86925e-31
7.2813e-29
1.0946e-26
1.64655e-24
2.47886e-22
3.7436e-20
5.69015e-18
8.7191e-16
1.33912e-13
2.01954e-11
2.87408e-09
3.63639e-07
3.76428e-05
0.00280179
0.00283906
0.00283906
0.00280179
3.8003e-05
1.05526e-31
1.48849e-29
2.16145e-27
3.13417e-25
4.50459e-23
6.38412e-21
8.86357e-19
1.19386e-16
1.53796e-14
1.85753e-12
2.04845e-10
1.99235e-08
1.63127e-06
0.000105046
0.0047404
0.0048438
0.0048438
0.00474042
0.000106674
2.42653e-30
3.20832e-28
4.33595e-26
5.77705e-24
7.4969e-22
9.38224e-20
1.11986e-17
1.25815e-15
1.30968e-13
1.23936e-11
1.04137e-09
7.53662e-08
4.50543e-06
0.000208846
0.00672595
0.00693022
0.00693022
0.00672602
0.000213349
3.97709e-29
4.69329e-27
5.66355e-25
6.66507e-23
7.53044e-21
8.08e-19
8.14421e-17
7.61721e-15
6.51599e-13
5.00972e-11
3.38673e-09
1.95602e-07
9.2703e-06
0.000339043
0.00860008
0.00892966
0.00892966
0.00860028
0.00034831
4.87311e-28
4.90722e-26
5.17846e-24
5.33373e-22
5.24009e-20
4.84923e-18
4.18176e-16
3.32161e-14
2.39729e-12
1.54614e-10
8.72497e-09
4.18897e-07
1.64497e-05
0.00049748
0.0104426
0.0109232
0.0109232
0.010443
0.000513927
5.01454e-27
4.0202e-25
3.6133e-23
3.24452e-21
2.7891e-19
2.25214e-17
1.68734e-15
1.15941e-13
7.2105e-12
3.99386e-10
1.93012e-08
7.91802e-07
2.65252e-05
0.000683976
0.0122673
0.012924
0.012924
0.0122681
0.000710499
5.17625e-26
2.96532e-24
2.11321e-22
1.61542e-20
1.21637e-18
8.66784e-17
5.73035e-15
3.46594e-13
1.89183e-11
9.17078e-10
3.86899e-08
1.38269e-06
4.0293e-05
0.0009035
0.0141252
0.0149871
0.0149871
0.0141266
0.000943791
6.24825e-25
2.45344e-23
1.20791e-21
7.08414e-20
4.4682e-18
2.78229e-16
1.63248e-14
8.80225e-13
4.28507e-11
1.8511e-09
6.95164e-08
2.20927e-06
5.72177e-05
0.00114063
0.0158978
0.0169791
0.0169792
0.0159001
0.00119785
8.65153e-24
2.71793e-22
9.33561e-21
3.66683e-19
1.68156e-17
8.44688e-16
4.26443e-14
2.03737e-12
8.88807e-11
3.4537e-09
1.16775e-07
3.34144e-06
7.79235e-05
0.00139989
0.0176395
0.0189585
0.0189586
0.0176429
0.00147781
1.19386e-22
3.47995e-21
1.01295e-19
2.95228e-18
9.10578e-17
3.12359e-15
1.18432e-13
4.65667e-12
1.76637e-10
6.12689e-09
1.87003e-07
4.85245e-06
0.000102831
0.00168174
0.0193626
0.0209406
0.0209407
0.0193674
0.00178457
1.50155e-21
4.29816e-20
1.19667e-18
3.15352e-17
7.96822e-16
1.98468e-14
5.08026e-13
1.38198e-11
3.95652e-10
1.12792e-08
2.99008e-07
6.93831e-06
0.000133367
0.00199325
0.0211056
0.0230078
0.023008
0.0211125
0.00212661
1.64624e-20
4.69786e-19
1.29618e-17
3.34051e-16
8.02543e-15
1.79908e-13
3.78944e-12
7.62525e-11
1.50459e-09
2.97696e-08
5.86637e-07
1.09735e-05
0.000180805
0.00240525
0.0231913
0.0259582
0.0259587
0.0232023
0.00258604
1.52323e-19
4.3491e-18
1.19897e-16
3.07881e-15
7.32689e-14
1.60734e-12
3.23369e-11
5.94108e-10
9.95116e-09
1.52378e-07
2.14937e-06
2.81011e-05
0.000336179
0.00348721
0.028144
0.036523
0.0365249
0.0281719
0.00382332
1.14653e-18
3.27812e-17
9.04668e-16
2.32415e-14
5.52699e-13
1.20877e-11
2.4131e-10
4.3594e-09
7.05606e-08
1.01163e-06
1.26815e-05
0.000136943
0.00125031
0.00937329
0.0543823
0.102958
0.102969
0.0545189
0.0106233
6.66691e-18
1.90916e-16
5.27634e-15
1.3573e-13
3.23111e-12
7.07049e-11
1.41099e-09
2.54371e-08
4.09527e-07
5.80482e-06
7.1146e-05
0.000736391
0.00623161
0.041115
0.195806
0.471857
0.471922
0.196542
0.0473461
2.76274e-17
7.92326e-16
2.19287e-14
5.64882e-13
1.34652e-11
2.95009e-10
5.89318e-09
1.06309e-07
1.71149e-06
2.42299e-05
0.000295977
0.00304156
0.02538
0.163111
0.740197
1.90023
1.90051
0.74324
0.188491
7.11127e-17
2.04176e-15
5.65708e-14
1.45886e-12
3.48125e-11
7.6351e-10
1.52674e-08
2.75664e-07
4.44136e-06
6.29087e-05
0.00076848
0.00789108
0.0657027
0.42027
1.88921
4.92065
4.92136
1.8971
0.485972
9.20635e-17
2.64297e-15
7.32195e-14
1.88797e-12
4.5047e-11
9.87858e-10
1.97511e-08
3.56576e-07
5.74414e-06
8.13475e-05
0.00099349
0.010198
0.0848618
0.542297
2.43358
6.34902
6.34993
2.44377
0.627158
9.75831e-17
2.80116e-15
7.7595e-14
2.00063e-12
4.77313e-11
1.04665e-09
2.09252e-08
3.77752e-07
6.08497e-06
8.617e-05
0.00105232
0.0108009
0.0898646
0.574099
2.57493
6.71788
6.71885
2.58573
0.663963
9.85876e-17
2.82997e-15
7.83933e-14
2.02122e-12
4.82233e-11
1.05746e-09
2.11421e-08
3.81683e-07
6.14858e-06
8.7075e-05
0.00106342
0.010915
0.0908109
0.580069
2.59986
6.78305
6.78403
2.61077
0.67088
9.87466e-17
2.83464e-15
7.85256e-14
2.02473e-12
4.83097e-11
1.05942e-09
2.11827e-08
3.82445e-07
6.16131e-06
8.72611e-05
0.00106575
0.0109391
0.0910091
0.581235
2.60272
6.79157
6.79254
2.61366
0.672244
9.88047e-17
2.83646e-15
7.85808e-14
2.02628e-12
4.83501e-11
1.06038e-09
2.12035e-08
3.82847e-07
6.16818e-06
8.73629e-05
0.00106702
0.0109521
0.0911093
0.581724
2.60262
6.79235
6.79333
2.61357
0.672834
9.88814e-17
2.83884e-15
7.86515e-14
2.02823e-12
4.83996e-11
1.06154e-09
2.12277e-08
3.83301e-07
6.1757e-06
8.74704e-05
0.00106831
0.0109646
0.0912009
0.582117
2.60228
6.79234
6.79332
2.61324
0.673318
9.90085e-17
2.84263e-15
7.87601e-14
2.03112e-12
4.84703e-11
1.06311e-09
2.12596e-08
3.83878e-07
6.18486e-06
8.75962e-05
0.00106977
0.0109781
0.091294
0.582479
2.60192
6.79224
6.79322
2.61289
0.673773
9.92085e-17
2.8484e-15
7.892e-14
2.03523e-12
4.85673e-11
1.06521e-09
2.13005e-08
3.8459e-07
6.19579e-06
8.77409e-05
0.00107137
0.0109925
0.0913878
0.582812
2.60154
6.79209
6.79307
2.61253
0.6742
9.94766e-17
2.85592e-15
7.9123e-14
2.0403e-12
4.8684e-11
1.06766e-09
2.13468e-08
3.85375e-07
6.20749e-06
8.78911e-05
0.00107299
0.0110064
0.0914737
0.58308
2.60104
6.79175
6.79274
2.61204
0.674554
9.9724e-17
2.86274e-15
7.93036e-14
2.04473e-12
4.87839e-11
1.06971e-09
2.1385e-08
3.86009e-07
6.21673e-06
8.80071e-05
0.0010742
0.0110163
0.0915294
0.583183
2.60011
6.79087
6.79185
2.61112
0.674713
9.98238e-17
2.86547e-15
7.93755e-14
2.04648e-12
4.88231e-11
1.07051e-09
2.13998e-08
3.86252e-07
6.22023e-06
8.80501e-05
0.00107463
0.0110194
0.0915377
0.583062
2.59868
6.7893
6.79029
2.60969
0.6746
9.9848e-17
2.86613e-15
7.93928e-14
2.0469e-12
4.88324e-11
1.0707e-09
2.14033e-08
3.86308e-07
6.22101e-06
8.80587e-05
0.00107469
0.0110191
0.0915222
0.582826
2.59702
6.78742
6.78841
2.60803
0.674348
9.98521e-17
2.86624e-15
7.93957e-14
2.04697e-12
4.8834e-11
1.07073e-09
2.14038e-08
3.86315e-07
6.22105e-06
8.80575e-05
0.00107463
0.0110177
0.0914974
0.582544
2.59531
6.78546
6.78644
2.60632
0.674042
9.98524e-17
2.86624e-15
7.93956e-14
2.04696e-12
4.88337e-11
1.07072e-09
2.14036e-08
3.86308e-07
6.22085e-06
8.80523e-05
0.00107452
0.0110155
0.0914661
0.582229
2.59358
6.78339
6.78438
2.60458
0.673695
9.98497e-17
2.86612e-15
7.9391e-14
2.04682e-12
4.88296e-11
1.07062e-09
2.14011e-08
3.86257e-07
6.21987e-06
8.80349e-05
0.00107423
0.0110115
0.0914181
0.581814
2.5915
6.78044
6.78143
2.6025
0.673231
9.98246e-17
2.86498e-15
7.93491e-14
2.04549e-12
4.87925e-11
1.0697e-09
2.13807e-08
3.85852e-07
6.21278e-06
8.79259e-05
0.00107278
0.010995
0.0912651
0.580738
2.58656
6.76989
6.77087
2.59754
0.67199
9.96443e-17
2.85673e-15
7.9044e-14
2.03581e-12
4.85218e-11
1.06297e-09
2.12319e-08
3.82936e-07
6.16249e-06
8.7172e-05
0.00106312
0.0108916
0.0903755
0.574919
2.56041
6.70355
6.7045
2.57122
0.665192
9.86585e-17
2.81121e-15
7.7354e-14
1.98201e-12
4.70146e-11
1.02546e-09
2.04015e-08
3.66654e-07
5.88198e-06
8.29777e-05
0.00100963
0.010324
0.0855379
0.543572
2.4195
6.33516
6.33595
2.42934
0.628502
9.49712e-17
2.63952e-15
7.09504e-14
1.77753e-12
4.1271e-11
8.82194e-10
1.72245e-08
3.04262e-07
4.8057e-06
6.68697e-05
0.000804099
0.00814257
0.0669503
0.423121
1.87708
4.90875
4.90891
1.88321
0.487496
8.74176e-17
2.28524e-15
5.76865e-14
1.35283e-12
2.9316e-11
5.83437e-10
1.05878e-08
1.7372e-07
2.55049e-06
3.30715e-05
0.000372311
0.00355445
0.0278141
0.169234
0.732232
1.8925
1.89134
0.730545
0.190313
8.37315e-17
2.11357e-15
5.12827e-14
1.14832e-12
2.35707e-11
4.40111e-10
7.40894e-09
1.11284e-07
1.47333e-06
1.69492e-05
0.000166597
0.00137128
0.0092158
0.0487523
0.189841
0.466106
0.464318
0.184447
0.0492667
8.27411e-17
2.06787e-15
4.95861e-14
1.09429e-12
2.20563e-11
4.02397e-10
6.57362e-09
9.48954e-08
1.19085e-06
1.27244e-05
0.000112731
0.000800121
0.00435667
0.0173453
0.0489883
0.0977394
0.0957892
0.0426298
0.0124942
8.25474e-17
2.05915e-15
4.92652e-14
1.08412e-12
2.17715e-11
3.95306e-10
6.41634e-09
9.18031e-08
1.1374e-06
1.19229e-05
0.000102489
0.000691457
0.00343462
0.0114346
0.0229319
0.0314301
0.0294506
0.0163954
0.00557227
8.24949e-17
2.0571e-15
4.91943e-14
1.08193e-12
2.17111e-11
3.93803e-10
6.38286e-09
9.11393e-08
1.12582e-06
1.17478e-05
0.000100245
0.00066779
0.00323813
0.0102348
0.0181131
0.0209228
0.0189386
0.0115438
0.00416418
8.24314e-17
2.05512e-15
4.91347e-14
1.08026e-12
2.1668e-11
3.92782e-10
6.36094e-09
9.07178e-08
1.11866e-06
1.16426e-05
9.89396e-05
0.000654599
0.00313521
0.00966557
0.0162017
0.018053
0.0160675
0.00961924
0.00349197
8.22365e-17
2.04979e-15
4.89928e-14
1.07674e-12
2.15866e-11
3.91049e-10
6.32722e-09
9.01258e-08
1.10943e-06
1.15171e-05
9.74931e-05
0.000640975
0.003036
0.00915526
0.0146354
0.0160476
0.0140634
0.00804842
0.00289419
8.12827e-17
2.02546e-15
4.83951e-14
1.06314e-12
2.13021e-11
3.85614e-10
6.23325e-09
8.8671e-08
1.08954e-06
1.12811e-05
9.51218e-05
0.000621468
0.00291128
0.00858601
0.0130511
0.0140719
0.0121054
0.00651372
0.00228917
7.65334e-17
1.90668e-15
4.55437e-14
1.00012e-12
2.00291e-11
3.62325e-10
5.85154e-09
8.31397e-08
1.01985e-06
1.0534e-05
8.85004e-05
0.000574851
0.00266524
0.00769455
0.0111062
0.0117477
0.00988817
0.00491565
0.00165776
5.89906e-17
1.46942e-15
3.50922e-14
7.70396e-13
1.54229e-11
2.78861e-10
4.50058e-09
6.38866e-08
7.82679e-07
8.06952e-06
6.76083e-05
0.000437196
0.0020109
0.00570798
0.00788483
0.00819214
0.00675211
0.0030855
0.000983495
2.28401e-17
5.68255e-16
1.35548e-14
2.97216e-13
5.94268e-12
1.07311e-10
1.72957e-09
2.45164e-08
2.99887e-07
3.08654e-06
2.58077e-05
0.000166465
0.000762883
0.00215157
0.00292723
0.0030215
0.0024707
0.001092
0.00033952
5.49057e-18
1.36399e-16
3.24884e-15
7.11319e-14
1.42012e-12
2.5605e-11
4.12046e-10
5.83143e-09
7.12137e-08
7.31701e-07
6.10681e-06
3.93099e-05
0.000179707
0.000505029
0.000682341
0.000702165
0.000571981
0.000248849
7.64383e-05
9.40365e-19
2.33236e-17
5.5467e-16
1.21252e-14
2.4169e-13
4.35075e-12
6.99007e-11
9.87639e-10
1.2041e-08
1.23507e-07
1.02897e-06
6.61123e-06
3.01613e-05
8.45478e-05
0.000113783
0.000116882
9.49967e-05
4.09624e-05
1.24968e-05
1.2438e-19
3.07987e-18
7.31269e-17
1.596e-15
3.17613e-14
5.70814e-13
9.15582e-12
1.29149e-10
1.57191e-09
1.60959e-08
1.33868e-07
8.58584e-07
3.90966e-06
1.09369e-05
1.46808e-05
1.5063e-05
1.22236e-05
5.24074e-06
1.59208e-06
1.33715e-20
3.30552e-19
7.83577e-18
1.70738e-16
3.39223e-15
6.08649e-14
9.74654e-13
1.37253e-11
1.66773e-10
1.70483e-09
1.41546e-08
9.06255e-08
4.11946e-07
1.15028e-06
1.54118e-06
1.57995e-06
1.28062e-06
5.46873e-07
1.65667e-07
1.20983e-21
2.98578e-20
7.06633e-19
1.53721e-17
3.04913e-16
5.46186e-15
8.7318e-14
1.22758e-12
1.48911e-11
1.51967e-10
1.2596e-09
8.05089e-09
3.65337e-08
1.01843e-07
1.36257e-07
1.39591e-07
1.13038e-07
4.81293e-08
1.45514e-08
9.44706e-23
2.32756e-21
5.49961e-20
1.19443e-18
2.36533e-17
4.23e-16
6.75123e-15
9.47559e-14
1.14751e-12
1.16909e-11
9.67392e-11
6.17286e-10
2.79651e-09
7.78335e-09
1.04014e-08
1.065e-08
8.61731e-09
3.6607e-09
1.10522e-09
6.48794e-24
1.59582e-22
3.76453e-21
8.16265e-20
1.6138e-18
2.88126e-17
4.591e-16
6.43294e-15
7.77744e-14
7.91051e-13
6.5348e-12
4.16289e-11
1.88286e-10
5.23256e-10
6.98575e-10
7.14936e-10
5.78078e-10
2.45123e-10
7.39304e-11
3.9764e-25
9.76434e-24
2.29967e-22
4.97828e-21
9.82626e-20
1.75149e-18
2.78623e-17
3.89764e-16
4.70444e-15
4.777e-14
3.9397e-13
2.5056e-12
1.13146e-11
3.1398e-11
4.18826e-11
4.28458e-11
3.46222e-11
1.46588e-11
4.41786e-12
2.09031e-26
5.12483e-25
1.20514e-23
2.60488e-22
5.13366e-21
9.13641e-20
1.45114e-18
2.02683e-17
2.44256e-16
2.47635e-15
2.03912e-14
1.29486e-13
5.83846e-13
1.61799e-12
2.15673e-12
2.20556e-12
1.78126e-12
7.53264e-13
2.26898e-13
)
;

boundaryField
{
    top
    {
        type            zeroGradient;
    }
    left
    {
        type            fixedValue;
        value           uniform 0;
    }
    bottom
    {
        type            zeroGradient;
    }
    right
    {
        type            zeroGradient;
    }
    frontAndBack
    {
        type            empty;
    }
}


// ************************************************************************* //
