/*--------------------------------*- C++ -*----------------------------------*\
| =========                 |                                                 |
| \\      /  F ield         | OpenFOAM: The Open Source CFD Toolbox           |
|  \\    /   O peration     | Version:  v1806                                 |
|   \\  /    A nd           | Web:      www.OpenFOAM.com                      |
|    \\/     M anipulation  |                                                 |
\*---------------------------------------------------------------------------*/
FoamFile
{
    version     2.0;
    format      ascii;
    class       volScalarField;
    location    "0.055";
    object      T;
}
// * * * * * * * * * * * * * * * * * * * * * * * * * * * * * * * * * * * * * //

dimensions      [0 0 0 1 0 0 0];


internalField   nonuniform List<scalar> 
1881
(
1.04852e-31
8.35827e-32
-1.17941e-30
-3.49002e-29
-8.40788e-28
-1.84209e-26
-3.66045e-25
-6.53545e-24
-1.03603e-22
-1.43657e-21
-1.70896e-20
-1.69961e-19
-1.36279e-18
-8.34508e-18
-3.57074e-17
-9.02077e-17
-9.01615e-17
-3.57885e-17
-9.67162e-18
1.73576e-30
1.85694e-30
2.47419e-30
8.44669e-30
-1.18408e-29
-3.87827e-27
-1.47417e-25
-3.88723e-24
-8.17038e-23
-1.41646e-21
-2.03141e-20
-2.3766e-19
-2.20246e-18
-1.53713e-17
-7.39314e-17
-2.05188e-16
-2.0562e-16
-7.47945e-17
-1.7873e-17
1.76382e-30
2.01533e-30
1.25095e-29
2.78742e-28
6.35496e-27
1.32819e-25
2.51471e-24
4.26865e-23
6.41466e-22
8.3995e-21
9.38985e-20
8.7213e-19
6.48051e-18
3.64409e-17
1.41922e-16
3.27006e-16
3.25934e-16
1.41076e-16
4.21441e-17
-1.94952e-29
-2.03086e-29
3.38937e-30
7.05991e-28
1.81691e-26
4.12791e-25
8.48587e-24
1.56607e-22
2.56498e-21
3.67405e-20
4.51549e-19
4.64109e-18
3.84764e-17
2.43696e-16
1.07801e-15
2.80349e-15
2.80437e-15
1.08344e-15
2.82668e-16
-7.86503e-29
-8.23165e-29
-1.0875e-28
-5.3063e-28
-6.21791e-27
-3.78978e-26
1.14552e-24
5.4318e-23
1.40305e-21
2.71124e-20
4.16167e-19
5.10327e-18
4.89657e-17
3.51009e-16
1.72387e-15
4.8568e-15
4.86847e-15
1.74599e-15
4.08056e-16
5.14385e-29
5.65944e-29
-2.18107e-28
-7.66821e-27
-1.79514e-25
-3.78866e-24
-7.24492e-23
-1.24359e-21
-1.89263e-20
-2.51459e-19
-2.85904e-18
-2.70887e-17
-2.06116e-16
-1.19247e-15
-4.80323e-15
-1.14643e-14
-1.14402e-14
-4.79076e-15
-1.38078e-15
1.21022e-27
1.26611e-27
7.28412e-28
-1.66735e-26
-4.52908e-25
-1.03672e-23
-2.14308e-22
-3.97648e-21
-6.54801e-20
-9.43025e-19
-1.16539e-17
-1.20454e-16
-1.00434e-15
-6.39818e-15
-2.84657e-14
-7.43996e-14
-7.44317e-14
-2.86202e-14
-7.42128e-15
2.60732e-27
2.63157e-27
3.3312e-27
1.78608e-26
2.59743e-25
3.261e-24
1.8009e-23
-5.126e-22
-2.14721e-20
-4.86321e-19
-8.09224e-18
-1.04256e-16
-1.03452e-15
-7.59915e-15
-3.80072e-14
-1.08449e-13
-1.08732e-13
-3.85256e-14
-8.82956e-15
-8.97802e-27
-9.74012e-27
-3.73208e-27
1.83033e-25
4.53109e-24
9.63124e-23
1.85197e-21
3.19855e-20
4.90218e-19
6.56577e-18
7.53474e-17
7.21623e-16
5.56014e-15
3.26418e-14
1.33691e-13
3.24468e-13
3.23964e-13
1.33565e-13
3.7821e-14
-5.82194e-26
-6.03048e-26
-4.85997e-26
3.58901e-25
1.06059e-23
2.43829e-22
5.04891e-21
9.38477e-20
1.5484e-18
2.23476e-17
2.76822e-16
2.86853e-15
2.39836e-14
1.53236e-13
6.83794e-13
1.79202e-12
1.79288e-12
6.87605e-13
1.77718e-13
-3.93433e-26
-3.36028e-26
-4.12921e-26
-3.91899e-25
-6.65221e-24
-9.2422e-23
-7.88911e-22
4.60279e-21
3.71937e-19
9.38245e-18
1.63321e-16
2.15758e-15
2.17584e-14
1.61657e-13
8.15317e-13
2.33993e-12
2.34607e-12
8.26479e-13
1.87667e-13
6.37288e-25
6.80403e-25
5.79659e-25
-3.60916e-24
-1.02055e-22
-2.18348e-21
-4.20652e-20
-7.28025e-19
-1.11865e-17
-1.50296e-16
-1.73125e-15
-1.66553e-14
-1.29018e-13
-7.62205e-13
-3.14428e-12
-7.68597e-12
-7.67597e-12
-3.14378e-12
-8.83496e-13
2.16315e-24
2.19552e-24
1.90533e-24
-7.21571e-24
-2.34704e-22
-5.39378e-21
-1.11389e-19
-2.06579e-18
-3.4022e-17
-4.90347e-16
-6.06785e-15
-6.28362e-14
-5.25199e-13
-3.35553e-12
-1.49774e-11
-3.92678e-11
-3.9286e-11
-1.50599e-11
-3.89097e-12
-2.28699e-24
-2.76772e-24
-3.157e-24
2.57803e-24
1.09774e-22
1.42878e-21
7.20717e-21
-2.51198e-19
-1.0065e-17
-2.25611e-16
-3.73827e-15
-4.80692e-14
-4.76633e-13
-3.50109e-12
-1.75189e-11
-5.00221e-11
-5.01417e-11
-1.77416e-11
-4.06023e-12
-3.22945e-23
-3.39237e-23
-3.28647e-23
5.06193e-23
2.03031e-21
4.38123e-20
8.42775e-19
1.45596e-17
2.2335e-16
2.99644e-15
3.44725e-14
3.31289e-13
2.56408e-12
1.51383e-11
6.24243e-11
1.5257e-10
1.52379e-10
6.24258e-11
1.75529e-11
-5.42757e-23
-5.23818e-23
-4.23997e-23
1.54026e-22
4.90417e-21
1.11687e-19
2.29046e-18
4.22194e-17
6.91559e-16
9.91916e-15
1.22219e-13
1.26084e-12
1.0503e-11
6.69086e-11
2.97915e-10
7.79661e-10
7.7997e-10
2.99482e-10
7.75722e-11
2.47936e-22
2.72428e-22
3.02923e-22
2.72472e-22
-4.5023e-22
1.81206e-21
4.16055e-19
1.43607e-17
3.3904e-16
6.28145e-15
9.41481e-14
1.13761e-12
1.08127e-11
7.7047e-11
3.77047e-10
1.06044e-09
1.06251e-09
3.81179e-10
8.92769e-11
1.24701e-21
1.28387e-21
1.27274e-21
-1.96261e-22
-3.4922e-20
-7.63321e-19
-1.46051e-17
-2.50733e-16
-3.82127e-15
-5.09172e-14
-5.81569e-13
-5.54613e-12
-4.25699e-11
-2.49074e-10
-1.01725e-09
-2.46382e-09
-2.46035e-09
-1.01683e-09
-2.88912e-10
1.61435e-22
-3.75813e-23
-4.5976e-22
-4.53997e-21
-9.62357e-20
-2.12923e-18
-4.3192e-17
-7.88851e-16
-1.28131e-14
-1.82357e-13
-2.23082e-12
-2.28607e-11
-1.89264e-10
-1.1989e-09
-5.31138e-09
-1.3845e-08
-1.3849e-08
-5.33724e-09
-1.38982e-09
-1.38239e-20
-1.47116e-20
-1.59127e-20
-1.76925e-20
-4.44609e-20
-9.00274e-19
-2.37105e-17
-5.34435e-16
-1.02718e-14
-1.68126e-13
-2.31787e-12
-2.63659e-11
-2.3942e-10
-1.64662e-09
-7.83919e-09
-2.16203e-08
-2.16519e-08
-7.90993e-09
-1.90711e-09
-3.41477e-20
-3.39028e-20
-3.25507e-20
-9.22278e-21
5.0383e-19
1.11052e-17
2.10026e-16
3.55826e-15
5.3458e-14
7.0122e-13
7.871e-12
7.36062e-11
5.52518e-10
3.15124e-09
1.25047e-08
2.9432e-08
2.93729e-08
1.24793e-08
3.65795e-09
7.52521e-20
8.5763e-20
1.02602e-19
1.84018e-19
1.77235e-18
3.63122e-17
7.2539e-16
1.3097e-14
2.10463e-13
2.96508e-12
3.59238e-11
3.64762e-10
2.99351e-09
1.88061e-08
8.26829e-08
2.14197e-07
2.14226e-07
8.30436e-08
2.18006e-08
5.42916e-19
5.6285e-19
5.90162e-19
6.6052e-19
1.92282e-18
3.29127e-17
7.24635e-16
1.44405e-14
2.53668e-13
3.87515e-12
5.05764e-11
5.502e-10
4.81476e-09
3.21062e-08
1.49008e-07
4.03258e-07
4.03665e-07
1.50102e-07
3.71805e-08
3.67358e-19
2.92918e-19
1.79512e-19
-2.02239e-19
-6.16062e-18
-1.23999e-16
-2.27391e-15
-3.73707e-14
-5.42353e-13
-6.83243e-12
-7.30818e-11
-6.44324e-10
-4.4919e-09
-2.32922e-08
-8.16469e-08
-1.66028e-07
-1.65131e-07
-8.08461e-08
-2.71091e-08
-5.06148e-18
-5.43339e-18
-5.96257e-18
-7.46329e-18
-3.1064e-17
-5.31123e-16
-1.03663e-14
-1.84608e-13
-2.92853e-12
-4.07424e-11
-4.87576e-10
-4.89125e-09
-3.96685e-08
-2.4635e-07
-1.07134e-06
-2.7502e-06
-2.75004e-06
-1.07533e-06
-2.85622e-07
-1.43575e-17
-1.42772e-17
-1.41819e-17
-1.51567e-17
-4.57411e-17
-7.60999e-16
-1.57399e-14
-2.9698e-13
-4.97889e-12
-7.305e-11
-9.20328e-10
-9.70475e-09
-8.2612e-08
-5.37583e-07
-2.44278e-06
-6.50373e-06
-6.50791e-06
-2.45751e-06
-6.22605e-07
2.52178e-17
2.94892e-17
3.51983e-17
4.32689e-17
8.90003e-17
8.23223e-16
1.27863e-14
1.82526e-13
2.18538e-12
2.04072e-11
1.22643e-10
-1.17846e-11
-1.03477e-08
-1.28569e-07
-8.3354e-07
-2.74822e-06
-2.75975e-06
-8.51036e-07
-1.47147e-07
2.01903e-16
2.09162e-16
2.18783e-16
2.39307e-16
5.15705e-16
6.23472e-15
1.16819e-13
2.04305e-12
3.18625e-11
4.35729e-10
5.12427e-09
5.04995e-08
4.02202e-07
2.45238e-06
1.04743e-05
2.64715e-05
2.6462e-05
1.05036e-05
2.84472e-06
1.10823e-16
7.65269e-17
3.23789e-17
3.11257e-18
4.80075e-16
1.23132e-14
2.52814e-13
4.62966e-12
7.54136e-11
1.07731e-09
1.324e-08
1.36428e-07
1.13666e-06
7.25119e-06
3.23658e-05
8.49515e-05
8.49805e-05
3.25277e-05
8.4002e-06
-1.9743e-15
-2.12057e-15
-2.30571e-15
-2.49589e-15
-2.54386e-15
1.77791e-15
1.15957e-13
2.59602e-12
4.89062e-11
7.89013e-10
1.07684e-08
1.21632e-07
1.09924e-06
7.53719e-06
3.58242e-05
9.87458e-05
9.88619e-05
3.61056e-05
8.712e-06
-4.77595e-15
-4.65487e-15
-4.49207e-15
-4.36373e-15
-6.18644e-15
-4.95721e-14
-8.71829e-13
-1.47667e-11
-2.22887e-10
-2.94293e-09
-3.33194e-08
-3.15049e-07
-2.39813e-06
-1.39175e-05
-5.63971e-05
-0.000135691
-0.000135521
-5.6411e-05
-1.61738e-05
1.33173e-14
1.5236e-14
1.76395e-14
1.9976e-14
1.6334e-14
-1.19899e-13
-2.86376e-12
-5.16904e-11
-8.23806e-10
-1.15164e-08
-1.3859e-07
-1.39916e-06
-1.14285e-05
-7.15308e-05
-0.00031365
-0.000811264
-0.000811315
-0.000314933
-8.29052e-05
7.74343e-14
7.9613e-14
8.21376e-14
8.40532e-14
7.76811e-14
-1.06296e-13
-3.92866e-12
-7.48755e-11
-1.24432e-09
-1.8105e-08
-2.26492e-07
-2.37436e-06
-2.01157e-05
-0.000130409
-0.000590941
-0.0015706
-0.00157139
-0.0005942
-0.000150944
-1.27719e-14
-3.12324e-14
-5.44877e-14
-8.0253e-14
-1.04076e-13
-4.99938e-14
1.17122e-12
1.56786e-11
1.22134e-10
-1.25308e-10
-2.37357e-08
-4.65567e-07
-5.65641e-06
-4.6951e-05
-0.000254775
-0.000766519
-0.000768323
-0.000257922
-5.38768e-05
-9.16525e-13
-9.77449e-13
-1.05061e-12
-1.12334e-12
-1.15139e-12
-2.43624e-13
1.8544e-11
3.44788e-10
5.36442e-09
7.29471e-08
8.53179e-07
8.36524e-06
6.6313e-05
0.000402627
0.00171334
0.00431805
0.00431645
0.00171809
0.000467218
-1.53978e-12
-1.43765e-12
-1.30366e-12
-1.13599e-12
-8.33731e-13
1.70921e-12
4.78419e-11
8.68237e-10
1.39185e-08
1.95865e-07
2.37377e-06
2.41445e-05
0.000198766
0.00125421
0.00554436
0.0144432
0.0144454
0.00556854
0.00145296
7.85841e-12
8.78083e-12
9.89663e-12
1.10885e-11
1.24487e-11
1.63202e-11
7.07481e-11
1.05843e-09
1.7344e-08
2.52578e-07
3.16627e-06
3.32715e-05
0.000282608
0.0018372
0.00834862
0.0222446
0.0222554
0.00839369
0.00212535
3.29886e-11
3.35693e-11
3.41431e-11
3.45026e-11
3.45198e-11
3.29821e-11
1.17499e-11
-2.62558e-10
-3.09956e-09
-2.16663e-08
5.99183e-09
2.77332e-06
4.49108e-05
0.000419812
0.00242866
0.00757552
0.007595
0.00246078
0.000478677
-2.92803e-11
-3.91258e-11
-5.11261e-11
-6.43831e-11
-7.94233e-11
-1.07388e-10
-3.5977e-10
-4.45457e-09
-6.72762e-08
-9.14542e-07
-1.07213e-05
-0.000105444
-0.000838975
-0.00511588
-0.021874
-0.0553794
-0.0553637
-0.0219406
-0.00593604
-4.44507e-10
-4.70748e-10
-5.0079e-10
-5.30738e-10
-5.61133e-10
-6.17556e-10
-1.20713e-09
-1.12442e-08
-1.69704e-07
-2.3672e-06
-2.85447e-05
-0.000289067
-0.00237034
-0.0149047
-0.0656919
-0.170749
-0.170765
-0.0659645
-0.0172663
-5.19111e-10
-4.53673e-10
-3.71401e-10
-2.74548e-10
-1.6342e-10
-7.23673e-11
-7.0891e-10
-1.47779e-08
-2.44433e-07
-3.49607e-06
-4.3004e-05
-0.000443952
-0.00370972
-0.0237587
-0.106543
-0.28094
-0.281019
-0.107045
-0.0274946
4.19914e-09
4.63985e-09
5.15203e-09
5.69006e-09
6.24858e-09
6.80566e-09
6.93997e-09
-1.34353e-09
-1.52708e-07
-2.41774e-06
-3.13012e-05
-0.000337783
-0.00293957
-0.0195391
-0.0905736
-0.245184
-0.245333
-0.0910917
-0.0225637
1.42604e-08
1.43515e-08
1.43863e-08
1.42996e-08
1.40703e-08
1.37257e-08
1.40771e-08
2.87132e-08
2.54554e-07
3.16292e-06
3.50008e-05
0.000323735
0.0024051
0.013582
0.0533927
0.124687
0.124515
0.0534055
0.0158365
-2.12393e-08
-2.62878e-08
-3.2203e-08
-3.86458e-08
-4.5608e-08
-5.29264e-08
-5.72986e-08
-1.63189e-09
9.88695e-07
1.46051e-05
0.000174156
0.00173518
0.0139948
0.0865811
0.375767
0.964244
0.964151
0.377112
0.10038
-2.07673e-07
-2.18659e-07
-2.30543e-07
-2.42022e-07
-2.52837e-07
-2.62445e-07
-2.63799e-07
-1.37155e-07
1.97292e-06
3.12091e-05
0.000378392
0.00382398
0.0312866
0.196378
0.864415
2.24516
2.24527
0.867863
0.227466
-1.56754e-07
-1.18805e-07
-7.32131e-08
-2.07043e-08
3.93353e-08
1.08007e-07
1.96602e-07
4.94968e-07
3.96235e-06
5.09693e-05
0.000611712
0.00621374
0.0511735
0.323352
1.43252
3.74099
3.74139
1.43846
0.374364
2.10551e-06
2.30923e-06
2.5368e-06
2.77432e-06
3.02008e-06
3.27316e-06
3.54579e-06
4.08712e-06
8.84005e-06
7.18526e-05
0.000825256
0.00838167
0.0692746
0.439432
1.9541
5.11929
5.11999
1.96235
0.508598
5.91752e-06
5.87974e-06
5.79741e-06
5.64612e-06
5.41457e-06
5.09453e-06
4.69464e-06
4.50268e-06
9.14869e-06
8.22956e-05
0.000970424
0.00991054
0.0821428
0.522341
2.32815
6.11099
6.1119
2.33804
0.604422
-1.271e-05
-1.54158e-05
-1.84791e-05
-2.17843e-05
-2.53037e-05
-2.90103e-05
-3.2861e-05
-3.65136e-05
-3.49518e-05
4.04952e-05
0.000995824
0.0106559
0.0888355
0.565955
2.52594
6.63735
6.63837
2.53669
0.654798
-9.47217e-05
-0.00010025
-0.000105301
-0.000109603
-0.000113148
-0.000115937
-0.000117956
-0.000118885
-0.000113628
-3.19999e-05
0.000950526
0.0108436
0.0909119
0.579803
2.58928
6.80687
6.80795
2.60035
0.670886
-1.02171e-05
1.64862e-05
4.37227e-05
7.13124e-05
9.92595e-05
0.000127556
0.000156209
0.000185532
0.000220612
0.000331557
0.00134213
0.0112553
0.0912902
0.579876
2.58819
6.80388
6.80516
2.59989
0.671757
0.00135064
0.00138337
0.00141843
0.00145353
0.00148864
0.00152378
0.00155895
0.00159447
0.0016354
0.00175152
0.00276244
0.0126301
0.092255
0.578276
2.57588
6.76874
6.77001
2.58749
0.669654
0.00276449
0.00279395
0.00282779
0.00286172
0.0028956
0.00292945
0.00296327
0.00299739
0.00303687
0.00315133
0.00415863
0.0140033
0.0934492
0.578361
2.57131
6.75417
6.75543
2.58286
0.669487
0.00410927
0.00413489
0.00416672
0.0041988
0.00423084
0.00426283
0.00429479
0.00432705
0.00436466
0.00447725
0.00548262
0.0153249
0.0947654
0.579657
2.57254
6.75531
6.75655
2.58406
0.670728
0.00537779
0.00539977
0.00542949
0.00545965
0.00548978
0.00551987
0.00554992
0.00558027
0.00561596
0.00572661
0.00672976
0.016567
0.0959812
0.580728
2.57307
6.75478
6.75601
2.58454
0.671712
0.00656853
0.00658705
0.00661455
0.00664271
0.00667086
0.00669896
0.00672702
0.00675536
0.00678905
0.00689759
0.00789753
0.0177202
0.0970262
0.581107
2.57067
6.74653
6.74774
2.58208
0.671903
0.0076793
0.00769449
0.00771966
0.00774574
0.00777183
0.00779787
0.00782388
0.00785018
0.00788182
0.00798828
0.00898547
0.0187976
0.098024
0.581577
2.56879
6.73935
6.74054
2.58013
0.672219
0.00871096
0.00872329
0.00874642
0.00877078
0.00879522
0.00881966
0.00884413
0.00886895
0.00889918
0.0090045
0.010003
0.0198399
0.0992657
0.583975
2.57563
6.75482
6.75599
2.58697
0.674814
0.00968049
0.00969147
0.00971408
0.00973828
0.00976269
0.00978716
0.00981169
0.00983659
0.00986697
0.00997311
0.0109808
0.0209106
0.101094
0.590418
2.60084
6.81872
6.8199
2.61232
0.682163
0.0106184
0.0106285
0.0106503
0.0106736
0.0106966
0.0107193
0.0107416
0.0107639
0.0107913
0.0108951
0.011914
0.0219973
0.10349
0.600992
2.64542
6.93485
6.93608
2.65715
0.694304
0.0114229
0.0114152
0.0114197
0.0114262
0.0114327
0.0114391
0.0114453
0.0114517
0.0114635
0.0115529
0.0125687
0.0227701
0.105401
0.610329
2.68671
7.04535
7.04657
2.69844
0.704659
0.0115562
0.0115442
0.0115437
0.0115456
0.0115478
0.01155
0.0115522
0.0115546
0.0115626
0.0116474
0.0126498
0.0227569
0.104733
0.606232
2.67087
7.00972
7.01099
2.68256
0.699795
0.0116149
0.0116025
0.0116003
0.0116006
0.0116013
0.0116019
0.0116024
0.0116032
0.0116092
0.0116877
0.0126323
0.0221702
0.099574
0.573541
2.52743
6.64037
6.64153
2.5382
0.661415
0.0115882
0.0115742
0.0115685
0.0115651
0.0115621
0.0115589
0.0115556
0.0115525
0.0115539
0.0116189
0.0124417
0.0207642
0.0882379
0.501351
2.20608
5.80181
5.80263
2.21464
0.576761
0.0113795
0.0113622
0.0113507
0.0113413
0.011332
0.0113226
0.0113131
0.0113036
0.0112976
0.0113424
0.0119861
0.0185092
0.0711552
0.392609
1.71883
4.52225
4.52245
1.72393
0.449341
0.0109006
0.0108792
0.0108607
0.0108437
0.0108268
0.0108098
0.0107926
0.0107754
0.0107608
0.0107825
0.0112223
0.0156873
0.0512725
0.266628
1.15211
3.02776
3.0272
1.15317
0.301827
0.0101181
0.010093
0.0100678
0.0100437
0.0100197
0.00999562
0.00997137
0.00994711
0.00992456
0.00992535
0.0101815
0.0127827
0.0328374
0.15113
0.631474
1.65036
1.64908
0.628792
0.1667
0.00907316
0.00904579
0.00901612
0.008987
0.00895799
0.00892893
0.00889979
0.00887067
0.00884273
0.00882911
0.00895626
0.0102394
0.0192503
0.0681759
0.257645
0.658842
0.657023
0.252269
0.0697542
0.00786262
0.00783487
0.00780332
0.00777194
0.00774068
0.00770941
0.00767814
0.00764693
0.00761665
0.00759614
0.00765755
0.00825763
0.0114939
0.0238943
0.0593259
0.131914
0.129801
0.0524873
0.0180884
0.00659399
0.00656741
0.00653614
0.00650477
0.0064735
0.00644227
0.00641106
0.00637995
0.00634974
0.00632803
0.00637097
0.00676496
0.00820748
0.00904458
-0.00492011
-0.0385112
-0.0407377
-0.0122979
0.000832413
0.00534675
0.00532215
0.00529242
0.00526236
0.00523237
0.00520243
0.00517254
0.00514276
0.00511392
0.0050938
0.0051403
0.00555228
0.00709474
0.00836436
-0.00429973
-0.0356172
-0.0378608
-0.0117431
0.000160591
0.00416378
0.00414152
0.00411395
0.00408587
0.00405783
0.00402986
0.00400194
0.00397417
0.00394735
0.00392954
0.00398209
0.00444194
0.00638792
0.0102362
0.00847985
0.000410626
-0.00178861
0.00120465
0.00263601
0.0030707
0.00305111
0.00302633
0.00300093
0.00297556
0.00295027
0.00292507
0.00290002
0.00287592
0.00286046
0.0029132
0.00336952
0.00538681
0.0101413
0.0131603
0.0155782
0.0135136
0.0063343
0.00319643
0.00209925
0.00208289
0.00206183
0.00204014
0.0020185
0.00199696
0.00197554
0.00195429
0.00193389
0.00192104
0.00196748
0.00236536
0.00412474
0.00827158
0.0108724
0.0129366
0.0111404
0.00492444
0.00222587
0.0012924
0.00127987
0.00126352
0.00124664
0.00122981
0.00121311
0.00119655
0.00118017
0.00116449
0.00115466
0.00119054
0.00149655
0.0028389
0.00589881
0.00718218
0.00719952
0.005804
0.00255065
0.00116818
0.000687909
0.000679437
0.000668279
0.000656744
0.000645278
0.000633938
0.000622731
0.000611686
0.000601149
0.000594523
0.000618252
0.000821396
0.00171157
0.00371704
0.00438505
0.00398413
0.00305371
0.00129071
0.000552334
0.000295439
0.000290623
0.000284239
0.000277643
0.000271112
0.000264684
0.000258361
0.000252159
0.000246263
0.000242504
0.000255179
0.000365273
0.000850718
0.00195681
0.00237976
0.00228968
0.00178592
0.000701036
0.000243637
8.63635e-05
8.42392e-05
8.14128e-05
7.85006e-05
7.56349e-05
7.28341e-05
7.00996e-05
6.74367e-05
6.49163e-05
6.32518e-05
6.80458e-05
0.000111254
0.000303737
0.000749451
0.000951264
0.000991327
0.000793377
0.000289907
7.64486e-05
4.19686e-06
3.61249e-06
2.83377e-06
2.03858e-06
1.26755e-06
5.26347e-07
-1.84927e-07
-8.65885e-07
-1.50471e-06
-1.97596e-06
-1.27738e-06
6.39269e-06
4.14807e-05
0.000123826
0.00016119
0.000169654
0.000133683
4.00987e-05
8.66137e-07
-1.19322e-05
-1.19101e-05
-1.188e-05
-1.18433e-05
-1.17992e-05
-1.17477e-05
-1.1689e-05
-1.16239e-05
-1.15591e-05
-1.15554e-05
-1.20818e-05
-1.57746e-05
-3.1654e-05
-6.81353e-05
-8.65006e-05
-9.38214e-05
-7.75611e-05
-3.26346e-05
-1.3292e-05
-6.52763e-06
-6.41408e-06
-6.26213e-06
-6.10375e-06
-5.94566e-06
-5.78886e-06
-5.63356e-06
-5.4803e-06
-5.33467e-06
-5.25165e-06
-5.66173e-06
-9.01642e-06
-2.37917e-05
-5.7722e-05
-7.17849e-05
-7.17481e-05
-5.6528e-05
-2.09447e-05
-5.94393e-06
-8.62271e-07
-8.13598e-07
-7.48678e-07
-6.8203e-07
-6.1693e-07
-5.53852e-07
-4.92833e-07
-4.33959e-07
-3.7856e-07
-3.40234e-07
-4.26985e-07
-1.26073e-06
-5.01026e-06
-1.36147e-05
-1.65085e-05
-1.49576e-05
-1.10736e-05
-3.44506e-06
-3.04421e-07
7.20451e-07
7.20685e-07
7.20843e-07
7.20545e-07
7.19635e-07
7.18101e-07
7.15964e-07
7.1329e-07
7.10568e-07
7.1238e-07
7.54055e-07
1.03419e-06
2.22867e-06
4.92272e-06
5.96171e-06
5.75145e-06
4.51849e-06
1.86944e-06
7.46728e-07
3.52721e-07
3.44913e-07
3.34443e-07
3.2354e-07
3.1269e-07
3.01966e-07
2.91384e-07
2.80979e-07
2.71135e-07
2.65636e-07
2.94252e-07
5.27293e-07
1.55556e-06
3.91144e-06
4.79542e-06
4.57772e-06
3.51744e-06
1.24308e-06
2.93204e-07
-2.45648e-08
-2.66381e-08
-2.93873e-08
-3.21706e-08
-3.48373e-08
-3.73661e-08
-3.97571e-08
-4.20119e-08
-4.41185e-08
-4.59147e-08
-4.60026e-08
-3.57502e-08
1.7537e-08
1.52481e-07
2.32605e-07
2.96037e-07
2.42511e-07
4.70688e-08
-3.39639e-08
-5.78407e-08
-5.70473e-08
-5.59753e-08
-5.48413e-08
-5.36909e-08
-5.25314e-08
-5.13653e-08
-5.01991e-08
-4.90941e-08
-4.86476e-08
-5.35483e-08
-9.05802e-08
-2.52641e-07
-6.24615e-07
-7.74721e-07
-7.64968e-07
-5.98548e-07
-2.17777e-07
-5.77573e-08
-3.9011e-09
-3.47665e-09
-2.91149e-09
-2.33285e-09
-1.76985e-09
-1.22679e-09
-7.03981e-10
-2.02029e-10
2.69271e-10
6.0778e-10
-8.68154e-12
-6.38572e-09
-3.56485e-08
-1.04821e-07
-1.36339e-07
-1.44192e-07
-1.14317e-07
-3.52636e-08
-2.32202e-09
8.16125e-09
8.07936e-09
7.96781e-09
7.84804e-09
7.72437e-09
7.59756e-09
7.46797e-09
7.33657e-09
7.21241e-09
7.1835e-09
7.94055e-09
1.34331e-08
3.7392e-08
9.26176e-08
1.16531e-07
1.19001e-07
9.45025e-08
3.45416e-08
9.25382e-09
7.53794e-10
6.90119e-10
6.05303e-10
5.18311e-10
4.33471e-10
3.51426e-10
2.72235e-10
1.96014e-10
1.24428e-10
7.46935e-11
1.85131e-10
1.26253e-09
6.16627e-09
1.76079e-08
2.19728e-08
2.12395e-08
1.6201e-08
4.92525e-09
2.86131e-10
-1.17766e-09
-1.1645e-09
-1.14661e-09
-1.1275e-09
-1.10787e-09
-1.08787e-09
-1.06753e-09
-1.04702e-09
-1.02777e-09
-1.02394e-09
-1.14683e-09
-2.03455e-09
-5.90981e-09
-1.48354e-08
-1.85447e-08
-1.85904e-08
-1.46262e-08
-5.25762e-09
-1.32537e-09
-1.36463e-11
-5.83202e-12
4.54508e-12
1.51321e-11
2.53865e-11
3.52288e-11
4.46545e-11
5.36592e-11
6.21217e-11
6.87282e-11
6.27155e-11
-1.96998e-11
-4.07636e-10
-1.31659e-09
-1.59285e-09
-1.37531e-09
-9.73893e-10
-2.22303e-10
7.66009e-11
1.63431e-10
1.60662e-10
1.56931e-10
1.53007e-10
1.49056e-10
1.45106e-10
1.41164e-10
1.37251e-10
1.33599e-10
1.32476e-10
1.51833e-10
2.94976e-10
9.22732e-10
2.36584e-09
2.91241e-09
2.79644e-09
2.15276e-09
7.49277e-10
1.65565e-10
-2.68804e-11
-2.74371e-11
-2.8167e-11
-2.88924e-11
-2.95702e-11
-3.01946e-11
-3.07663e-11
-3.12886e-11
-3.1788e-11
-3.25089e-11
-3.53327e-11
-5.08068e-11
-1.14612e-10
-2.56246e-10
-3.03265e-10
-2.73282e-10
-2.07738e-10
-8.59139e-11
-3.44258e-11
-1.62507e-11
-1.57682e-11
-1.51231e-11
-1.44539e-11
-1.37918e-11
-1.31413e-11
-1.25034e-11
-1.18803e-11
-1.12994e-11
-1.10349e-11
-1.32724e-11
-3.06819e-11
-1.07957e-10
-2.87783e-10
-3.62868e-10
-3.65968e-10
-2.87105e-10
-9.69781e-11
-1.78167e-11
7.49926e-12
7.44329e-12
7.36674e-12
7.28359e-12
7.19656e-12
7.10613e-12
7.01259e-12
6.91701e-12
6.83005e-12
6.85674e-12
7.82681e-12
1.4513e-11
4.3603e-11
1.10693e-10
1.38427e-10
1.38545e-10
1.0887e-10
3.87818e-11
9.44142e-12
-4.6626e-13
-5.06407e-13
-5.59556e-13
-6.13524e-13
-6.65472e-13
-7.1499e-13
-7.62072e-13
-8.06776e-13
-8.49303e-13
-8.90971e-13
-9.39698e-13
-1.02793e-12
-1.22011e-12
-1.49419e-12
-1.7957e-12
-2.11125e-12
-1.93209e-12
-1.34234e-12
-1.01876e-12
-9.11036e-13
-8.87748e-13
-8.56623e-13
-8.24301e-13
-7.92246e-13
-7.6068e-13
-7.29641e-13
-6.99268e-13
-6.71146e-13
-6.61271e-13
-7.97283e-13
-1.82004e-12
-6.34414e-12
-1.6846e-11
-2.10304e-11
-2.07412e-11
-1.6122e-11
-5.44316e-12
-1.01599e-12
4.1511e-13
4.12005e-13
4.07812e-13
4.03321e-13
3.98684e-13
3.93926e-13
3.8906e-13
3.84148e-13
3.79867e-13
3.82957e-13
4.46829e-13
8.79529e-13
2.76064e-12
7.09841e-12
8.84117e-12
8.73567e-12
6.8188e-12
2.39448e-12
5.49918e-13
-1.63758e-14
-1.74453e-14
-1.886e-14
-2.02938e-14
-2.16711e-14
-2.29812e-14
-2.42243e-14
-2.54027e-14
-2.65255e-14
-2.76644e-14
-2.93126e-14
-3.3929e-14
-4.86399e-14
-7.70377e-14
-8.93286e-14
-8.68063e-14
-7.18953e-14
-4.35152e-14
-2.96935e-14
)
;

boundaryField
{
    top
    {
        type            zeroGradient;
    }
    left
    {
        type            fixedValue;
        value           uniform 0;
    }
    bottom
    {
        type            zeroGradient;
    }
    right
    {
        type            zeroGradient;
    }
    frontAndBack
    {
        type            empty;
    }
}


// ************************************************************************* //
