/*--------------------------------*- C++ -*----------------------------------*\
| =========                 |                                                 |
| \\      /  F ield         | OpenFOAM: The Open Source CFD Toolbox           |
|  \\    /   O peration     | Version:  v1806                                 |
|   \\  /    A nd           | Web:      www.OpenFOAM.com                      |
|    \\/     M anipulation  |                                                 |
\*---------------------------------------------------------------------------*/
FoamFile
{
    version     2.0;
    format      ascii;
    class       volScalarField;
    location    "0.06";
    object      T;
}
// * * * * * * * * * * * * * * * * * * * * * * * * * * * * * * * * * * * * * //

dimensions      [0 0 0 1 0 0 0];


internalField   nonuniform List<scalar> 
1881
(
9.45826e-109
2.26793e-107
5.27732e-106
1.14279e-104
2.28962e-103
4.2157e-102
7.07641e-101
1.07256e-99
1.45069e-98
1.72534e-97
1.77039e-96
1.52816e-95
1.07113e-94
5.78549e-94
2.21217e-93
5.12176e-93
5.11016e-93
2.20656e-93
6.7438e-94
8.40074e-107
2.01747e-105
4.70156e-104
1.01964e-102
2.04594e-101
3.77268e-100
6.34226e-99
9.62722e-98
1.30408e-96
1.55328e-95
1.59621e-94
1.37984e-93
9.68576e-93
5.23894e-92
2.00584e-91
4.64898e-91
4.63883e-91
2.00129e-91
6.10857e-92
7.42653e-105
1.78625e-103
4.1689e-102
9.05462e-101
1.81954e-99
3.36017e-98
5.65719e-97
8.60006e-96
1.16667e-94
1.39167e-93
1.43223e-92
1.2399e-91
8.71602e-91
4.72106e-90
1.80995e-89
4.19932e-89
4.19048e-89
1.80633e-89
5.50633e-90
6.46179e-103
1.5566e-101
3.63832e-100
7.91398e-99
1.59269e-97
2.94562e-96
4.96662e-95
7.56149e-94
1.0273e-92
1.22723e-91
1.26487e-90
1.09662e-89
7.72007e-89
4.18762e-88
1.60763e-87
3.73362e-87
3.72606e-87
1.60483e-87
4.88553e-88
5.53204e-101
1.33468e-99
3.12426e-98
6.80593e-97
1.37173e-95
2.54076e-94
4.29036e-93
6.54162e-92
8.90066e-91
1.06487e-89
1.09915e-88
9.54362e-88
6.72862e-87
3.65535e-86
1.40535e-85
3.26671e-85
3.26035e-85
1.40327e-85
4.26564e-86
4.6585e-99
1.12566e-97
2.63891e-96
5.7572e-95
1.16209e-93
2.15567e-92
3.64552e-91
5.56671e-90
7.58547e-89
9.08874e-88
9.39541e-87
8.1702e-86
5.76949e-85
3.13974e-84
1.20927e-83
2.8124e-83
2.80714e-83
1.20778e-83
3.66467e-84
3.85738e-97
9.33524e-96
2.19174e-94
4.78877e-93
9.6806e-92
1.79842e-90
3.04592e-89
4.65807e-88
6.35682e-87
7.62807e-86
7.89759e-85
6.8789e-84
4.8667e-83
2.65472e-82
1.02527e-81
2.38322e-81
2.37895e-81
1.02424e-81
3.09872e-82
3.13962e-95
7.60994e-94
1.78934e-92
3.91541e-91
7.92693e-90
1.47484e-88
2.50162e-87
3.83143e-86
5.23661e-85
6.29355e-84
6.52661e-83
5.6957e-82
4.04036e-81
2.21333e-80
8.59623e-80
1.99093e-79
1.98752e-79
8.58917e-80
2.58253e-80
2.51099e-93
6.09569e-92
1.43544e-90
3.14571e-89
6.37818e-88
1.18847e-86
2.01891e-85
3.0968e-84
4.2391e-83
5.10306e-82
5.30224e-81
4.63998e-80
3.30789e-79
1.82994e-78
7.20992e-78
1.64859e-77
1.6459e-77
7.20444e-78
2.13174e-78
1.97261e-91
4.79613e-90
1.1311e-88
2.4825e-87
5.04102e-86
9.40724e-85
1.60048e-83
2.45876e-82
3.37119e-81
4.06598e-80
4.23621e-79
3.72629e-78
2.68789e-77
1.52621e-76
6.25481e-76
1.37611e-75
1.374e-75
6.2484e-76
1.76882e-76
1.52158e-89
3.70527e-88
8.75152e-87
1.92363e-85
3.91206e-84
7.3115e-83
1.24584e-81
1.91704e-80
2.63333e-79
3.18438e-78
3.33433e-77
2.96867e-76
2.20912e-75
1.34534e-74
6.09081e-74
1.21402e-73
1.21234e-73
6.07881e-74
1.53733e-74
1.15196e-87
2.80955e-86
6.6459e-85
1.46301e-83
2.97981e-82
5.57771e-81
9.51934e-80
1.46744e-78
2.02075e-77
2.455e-76
2.60031e-75
2.38979e-74
1.93069e-73
1.38539e-72
7.58039e-72
1.257e-71
1.25553e-71
7.55283e-72
1.53533e-72
8.5563e-86
2.09008e-84
4.95148e-83
1.09165e-81
2.22685e-80
4.17492e-79
7.13781e-78
1.10289e-76
1.52516e-75
1.87222e-74
2.04278e-73
2.03978e-72
1.98717e-71
1.87755e-70
1.28301e-69
1.73511e-69
1.73354e-69
1.27643e-69
1.99343e-70
6.23242e-84
1.5248e-82
3.61777e-81
7.98831e-80
1.63209e-78
3.06512e-77
5.25188e-76
8.14551e-75
1.13666e-73
1.43248e-72
1.68836e-71
2.0359e-70
2.68957e-69
3.36985e-68
2.70059e-67
3.21198e-67
3.20967e-67
2.68489e-67
3.45759e-68
4.44994e-82
1.09041e-80
2.59108e-79
5.73025e-78
1.17271e-76
2.20693e-75
3.7941e-74
5.9301e-73
8.46247e-72
1.14151e-70
1.607e-69
2.64671e-68
4.75221e-67
7.15919e-66
6.27877e-65
7.06907e-65
7.06472e-65
6.24147e-65
7.21802e-66
3.11296e-80
7.64003e-79
1.81828e-77
4.02779e-76
8.25906e-75
1.55889e-73
2.69743e-72
4.29484e-71
6.49157e-70
1.02695e-68
1.96257e-67
4.47224e-66
9.80293e-65
1.63084e-63
1.5133e-62
1.6693e-62
1.66838e-62
1.50446e-62
1.63165e-63
2.13259e-78
5.2423e-77
1.24965e-75
2.77331e-74
5.7018e-73
1.08204e-71
1.90058e-70
3.17181e-69
5.49963e-68
1.16162e-66
3.11531e-65
8.82967e-64
2.15297e-62
3.80413e-61
3.69284e-60
4.03936e-60
4.0373e-60
3.67196e-60
3.79137e-61
1.43e-76
3.52099e-75
8.40819e-74
1.87045e-72
3.86288e-71
7.41863e-70
1.35274e-68
2.5302e-67
5.71075e-66
1.70764e-64
5.8295e-63
1.85778e-61
4.82536e-60
8.93847e-59
9.05571e-58
9.85885e-58
9.85422e-58
9.00639e-58
8.8853e-59
9.38075e-75
2.31384e-73
5.53748e-72
1.23648e-70
2.5777e-69
5.0965e-68
1.01842e-66
2.40129e-65
7.67601e-64
3.00063e-62
1.16938e-60
3.98723e-59
1.08688e-57
2.1045e-56
2.22664e-55
2.4153e-55
2.41425e-55
2.215e-55
2.08733e-56
6.01727e-73
1.48727e-71
3.57065e-70
8.03187e-69
1.71192e-67
3.63479e-66
8.83164e-65
2.91795e-63
1.25381e-61
5.71015e-60
2.39659e-58
8.58824e-57
2.4479e-55
4.95671e-54
5.48615e-53
5.93096e-53
5.92861e-53
5.45868e-53
4.90595e-54
3.77257e-71
9.35061e-70
2.25787e-68
5.16406e-67
1.16168e-65
2.89013e-64
9.61489e-63
4.37939e-61
2.25018e-59
1.11419e-57
4.92559e-56
1.8461e-54
5.5031e-53
1.16717e-51
1.35417e-50
1.45913e-50
1.4586e-50
1.3477e-50
1.15285e-51
2.31134e-69
5.75543e-68
1.40702e-66
3.34873e-65
8.52312e-64
2.80384e-62
1.30871e-60
7.35739e-59
4.16577e-57
2.18005e-55
1.00842e-53
3.95206e-52
1.23391e-50
2.74668e-49
3.34814e-48
3.59573e-48
3.59454e-48
3.3329e-48
2.70751e-49
1.38431e-67
3.47909e-66
8.75338e-65
2.28542e-63
7.36465e-62
3.41389e-60
2.03865e-58
1.28673e-56
7.73994e-55
4.2418e-53
2.05123e-51
8.41687e-50
2.7578e-48
6.45731e-47
8.29065e-46
8.87415e-46
8.87149e-46
8.25482e-46
6.35266e-47
8.11948e-66
2.08318e-64
5.60464e-63
1.76747e-61
7.91999e-60
4.87145e-58
3.34927e-56
2.26346e-54
1.42794e-52
8.17983e-51
4.13958e-49
1.78179e-47
6.13997e-46
1.51591e-44
2.05565e-43
2.19298e-43
2.19239e-43
2.04725e-43
1.48849e-44
4.6884e-64
1.26143e-62
3.91656e-61
1.6637e-59
1.01989e-57
7.4618e-56
5.55769e-54
3.94924e-52
2.60426e-50
1.56039e-48
8.27846e-47
3.74567e-45
1.36071e-43
3.55185e-42
5.10253e-41
5.42512e-41
5.42382e-41
5.0829e-41
3.48113e-42
2.70032e-62
8.06461e-61
3.21855e-59
1.90075e-57
1.44174e-55
1.16258e-53
9.14364e-52
6.79412e-50
4.68359e-48
2.93983e-46
1.63842e-44
7.81055e-43
2.99894e-41
8.30074e-40
1.2675e-38
1.34308e-38
1.3428e-38
1.26293e-38
8.12109e-40
1.59661e-60
5.81811e-59
3.20801e-57
2.44601e-55
2.09606e-53
1.79725e-51
1.47957e-49
1.1487e-47
8.28888e-46
5.46091e-44
3.20413e-42
1.61335e-40
6.56604e-39
1.93335e-37
3.14934e-36
3.32587e-36
3.32524e-36
3.13876e-36
1.88837e-37
1.02016e-58
4.99653e-57
3.69206e-55
3.28991e-53
3.03158e-51
2.72654e-49
2.34447e-47
1.9036e-45
1.44036e-43
9.98106e-42
6.18017e-40
3.29587e-38
1.42621e-36
4.48313e-35
7.82263e-34
8.23308e-34
8.23174e-34
7.79828e-34
4.37206e-35
7.48116e-57
5.0367e-55
4.53896e-53
4.42666e-51
4.2957e-49
4.03542e-47
3.62555e-45
3.08338e-43
2.45118e-41
1.79058e-39
1.17307e-37
6.64562e-36
3.06808e-34
1.03364e-32
1.94167e-31
2.03657e-31
2.03629e-31
1.93611e-31
1.00656e-32
6.43605e-55
5.56507e-53
5.63795e-51
5.83244e-49
5.91601e-47
5.80146e-45
5.45252e-43
4.8656e-41
4.07232e-39
3.14356e-37
2.18513e-35
1.31929e-33
6.52274e-32
2.36646e-30
4.81773e-29
5.03559e-29
5.03499e-29
4.8051e-29
2.30108e-30
6.22667e-53
6.31108e-51
6.8681e-49
7.44199e-47
7.87394e-45
8.06612e-43
7.94238e-41
7.45047e-39
6.57959e-37
5.38104e-35
3.98074e-33
2.57056e-31
1.36713e-29
5.37463e-28
1.19706e-26
1.24667e-26
1.24654e-26
1.19421e-26
5.21764e-28
6.32993e-51
7.05415e-49
8.07817e-47
9.12754e-45
1.00731e-42
1.07918e-40
1.11504e-38
1.10167e-36
1.02891e-34
8.93985e-33
7.06151e-31
4.89719e-29
2.81774e-27
1.21081e-25
2.98844e-24
3.10047e-24
3.10022e-24
2.98204e-24
1.17322e-25
6.41387e-49
7.60042e-47
9.08239e-45
1.06877e-42
1.23103e-40
1.38095e-38
1.49956e-36
1.5635e-34
1.54801e-32
1.4331e-30
1.21315e-28
9.08173e-27
5.69751e-25
2.70804e-23
7.52266e-22
7.77381e-22
7.77331e-22
7.50837e-22
2.61869e-23
6.27422e-47
7.78568e-45
9.67712e-43
1.18579e-40
1.42648e-38
1.67738e-36
1.91708e-34
2.11334e-32
2.22354e-30
2.2002e-28
2.00485e-26
1.63114e-24
1.12769e-22
6.01615e-21
1.90955e-19
1.96551e-19
1.96542e-19
1.90641e-19
5.80884e-21
5.81017e-45
7.49854e-43
9.6809e-41
1.23523e-38
1.55272e-36
1.91549e-34
2.30703e-32
2.6936e-30
3.01894e-28
3.20412e-26
3.16036e-24
2.82002e-22
2.1772e-20
1.32327e-18
4.84709e-17
4.97076e-17
4.97058e-17
4.84048e-17
1.2778e-18
5.01814e-43
6.71245e-41
8.99234e-39
1.19435e-36
1.56879e-34
2.03108e-32
2.57999e-30
3.19493e-28
3.8234e-26
4.37038e-24
4.69956e-22
4.65126e-20
4.06644e-18
2.84651e-16
1.20575e-14
1.23255e-14
1.23251e-14
1.20446e-14
2.75652e-16
3.98418e-41
5.50951e-39
7.64759e-37
1.05616e-34
1.44842e-32
1.96711e-30
2.63539e-28
3.4641e-26
4.43586e-24
5.48625e-22
6.48591e-20
7.20433e-18
7.21018e-16
5.83467e-14
2.84764e-12
2.90311e-12
2.90306e-12
2.84545e-12
5.68424e-14
2.86004e-39
4.07625e-37
5.84751e-35
8.37667e-33
1.19672e-30
1.70159e-28
2.40088e-26
3.3481e-24
4.5935e-22
6.17354e-20
8.08646e-18
1.01695e-15
1.17016e-13
1.09212e-11
6.12604e-10
6.23108e-10
6.23102e-10
6.123e-10
1.07301e-11
1.81839e-37
2.65884e-35
3.9239e-33
5.8034e-31
8.5963e-29
1.27378e-26
1.88473e-24
2.77896e-22
4.07822e-20
5.96144e-18
8.67611e-16
1.23702e-13
1.63188e-11
1.75157e-09
1.13943e-07
1.15648e-07
1.15648e-07
1.13913e-07
1.73731e-09
9.97033e-36
1.48459e-33
2.23616e-31
3.3854e-29
5.15166e-27
7.87758e-25
1.20988e-22
1.86657e-20
2.89985e-18
4.56358e-16
7.30097e-14
1.16674e-11
1.74976e-09
2.17077e-07
1.70538e-05
1.72676e-05
1.72675e-05
1.70522e-05
2.17187e-07
4.55257e-34
6.81978e-32
1.0342e-29
1.57802e-27
2.42363e-25
3.74761e-23
5.83492e-21
9.15612e-19
1.45376e-16
2.35715e-14
3.94267e-12
6.74814e-10
1.1237e-07
1.64767e-05
0.00182277
0.00183913
0.00183913
0.00182277
1.65857e-05
1.65424e-32
2.44448e-30
3.64665e-28
5.4542e-26
8.17362e-24
1.2255e-21
1.83272e-19
2.71673e-17
3.94533e-15
5.50579e-13
7.17743e-11
8.4125e-09
8.42581e-07
6.71047e-05
0.0037721
0.00383835
0.00383835
0.0037721
6.79439e-05
4.52766e-31
6.40663e-29
9.06685e-27
1.27036e-24
1.75332e-22
2.36616e-20
3.0906e-18
3.85536e-16
4.51685e-14
4.86876e-12
4.70755e-10
3.95321e-08
2.76015e-06
0.000150152
0.00568907
0.00583642
0.00583642
0.00568911
0.000152909
8.87108e-30
1.16106e-27
1.49798e-25
1.88033e-23
2.27999e-21
2.64701e-19
2.911e-17
2.99383e-15
2.83586e-13
2.42893e-11
1.8386e-09
1.19399e-07
6.38371e-06
0.000263989
0.00757578
0.00783327
0.00783327
0.0075759
0.00027037
1.22523e-28
1.45166e-26
1.67452e-24
1.85351e-22
1.95449e-20
1.94695e-18
1.81429e-16
1.56343e-14
1.22875e-12
8.65976e-11
5.35646e-09
2.82643e-07
1.22251e-05
0.000407817
0.00944142
0.00983673
0.00983674
0.0094417
0.000420039
1.21758e-27
1.29838e-25
1.33804e-23
1.31196e-21
1.2151e-19
1.05444e-17
8.49327e-16
6.28079e-14
4.20846e-12
2.51393e-10
1.31133e-08
5.81036e-07
2.10331e-05
0.000586069
0.0113448
0.0119093
0.0119093
0.0113454
0.000607099
8.98214e-27
8.58386e-25
7.90191e-23
6.88888e-21
5.64741e-19
4.31946e-17
3.05475e-15
1.97642e-13
1.15499e-11
6.00037e-10
2.71543e-08
1.0417e-06
3.25988e-05
0.000784848
0.013154
0.0139052
0.0139053
0.013155
0.000817444
5.3638e-26
4.59957e-24
3.80307e-22
2.97148e-20
2.17747e-18
1.48484e-16
9.33942e-15
5.3624e-13
2.77546e-11
1.27483e-09
5.09307e-08
1.72282e-06
4.75062e-05
0.00100809
0.0149325
0.0158914
0.0158914
0.0149342
0.00105559
2.75732e-25
2.10607e-23
1.56819e-21
1.1055e-19
7.30359e-18
4.48331e-16
2.53431e-14
1.30572e-12
6.05587e-11
2.48963e-09
8.89393e-08
2.68844e-06
6.62337e-05
0.00125668
0.0166976
0.0178854
0.0178855
0.0167003
0.00132291
1.33468e-24
8.68996e-23
5.75264e-21
3.66224e-19
2.19599e-17
1.22446e-15
6.28245e-14
2.93427e-12
1.23207e-10
4.58002e-09
1.47791e-07
4.03226e-06
8.96425e-05
0.00153591
0.0184896
0.019932
0.0199321
0.0184936
0.00162555
7.44128e-24
3.61708e-22
1.9681e-20
1.09286e-18
5.88635e-17
2.98501e-15
1.3993e-13
5.9791e-12
2.29693e-10
7.80888e-09
2.30345e-07
5.74323e-06
0.000116689
0.00182898
0.0202088
0.0219157
0.0219159
0.0202146
0.00194567
6.2545e-23
2.11523e-21
8.16697e-20
3.48467e-18
1.5643e-16
6.96748e-15
2.94715e-13
1.15029e-11
4.05714e-10
1.26886e-08
3.44554e-07
7.91086e-06
0.000148078
0.00214096
0.0218985
0.0238842
0.0238846
0.0219064
0.00228904
6.92281e-22
1.93305e-20
5.57591e-19
1.6697e-17
5.35475e-16
1.83353e-14
6.43765e-13
2.19932e-11
6.99396e-10
2.00149e-08
5.00795e-07
1.06302e-05
0.000184316
0.00247346
0.0235737
0.0258585
0.025859
0.0235843
0.00265777
7.75752e-21
2.05584e-19
5.35276e-18
1.3358e-16
3.25317e-15
7.94076e-14
1.99141e-12
5.14561e-11
1.3308e-09
3.28251e-08
7.34389e-07
1.42276e-05
0.000227661
0.00283832
0.0252887
0.0279551
0.0279558
0.0253029
0.00306598
7.77957e-20
2.04009e-18
5.19362e-17
1.2381e-15
2.76266e-14
5.78713e-13
1.14754e-11
2.18533e-10
4.06227e-09
7.41336e-08
1.30375e-06
2.11262e-05
0.000296406
0.00334191
0.0274865
0.0312315
0.0312327
0.0275076
0.0036383
6.62803e-19
1.73608e-17
4.40339e-16
1.04079e-14
2.28153e-13
4.61596e-12
8.57955e-11
1.45957e-09
2.26851e-08
3.22338e-07
4.19555e-06
4.98763e-05
0.000530689
0.00479842
0.0335226
0.0440374
0.0440412
0.0335723
0.00532902
4.60694e-18
1.20778e-16
3.0644e-15
7.23825e-14
1.58277e-12
3.18367e-11
5.84752e-10
9.72437e-09
1.44986e-07
1.91605e-06
2.21448e-05
0.000220203
0.00184337
0.0125598
0.0655015
0.120818
0.120839
0.0657213
0.0144029
2.48197e-17
6.51549e-16
1.65503e-14
3.91288e-13
8.56085e-12
1.72173e-10
3.15811e-09
5.23382e-08
7.74794e-07
1.01017e-05
0.000113932
0.00108572
0.00846309
0.0514573
0.226112
0.514973
0.515077
0.227197
0.0599198
9.59316e-17
2.52163e-15
6.41322e-14
1.51803e-12
3.32486e-11
6.69308e-10
1.2285e-08
2.03636e-07
3.01285e-06
3.92081e-05
0.000440422
0.00416449
0.0320084
0.189846
0.798524
1.92631
1.92671
0.802688
0.221854
2.34469e-16
6.16931e-15
1.57052e-13
3.72097e-12
8.15729e-11
1.64353e-09
3.01909e-08
5.00796e-07
7.41326e-06
9.64949e-05
0.00108363
0.0102353
0.0784764
0.463219
1.93037
4.72163
4.72262
1.9406
0.541695
3.05559e-16
8.03903e-15
2.04631e-13
4.84777e-12
1.06265e-10
2.14082e-09
3.93218e-08
6.5218e-07
9.65283e-06
0.000125623
0.00141036
0.0133162
0.102033
0.601613
2.50076
6.13094
6.13222
2.51407
0.703644
3.2578e-16
8.57026e-15
2.18135e-13
5.16732e-12
1.13262e-10
2.28162e-09
4.19056e-08
6.94995e-07
1.0286e-05
0.000133854
0.00150265
0.0141858
0.108674
0.640507
2.65938
6.52307
6.52444
2.67355
0.74918
3.29772e-16
8.67526e-15
2.20808e-13
5.23068e-12
1.14652e-10
2.30969e-09
4.24223e-08
7.03588e-07
1.04135e-05
0.000135519
0.00152137
0.0143623
0.110018
0.648261
2.68937
6.59781
6.5992
2.70372
0.758278
3.30454e-16
8.69353e-15
2.21283e-13
5.24217e-12
1.1491e-10
2.31503e-09
4.2523e-08
7.05303e-07
1.04395e-05
0.000135864
0.0015253
0.0143994
0.110293
0.649708
2.69341
6.60857
6.60996
2.7078
0.76
3.30694e-16
8.70033e-15
2.21469e-13
5.2469e-12
1.15021e-10
2.31741e-09
4.25694e-08
7.06115e-07
1.04521e-05
0.000136032
0.00152718
0.0144166
0.110411
0.650193
2.69352
6.60969
6.61108
2.70793
0.760604
3.30981e-16
8.70838e-15
2.21686e-13
5.25234e-12
1.15147e-10
2.32005e-09
4.26197e-08
7.06972e-07
1.04649e-05
0.000136198
0.00152899
0.0144324
0.110512
0.650546
2.69324
6.60971
6.6111
2.70766
0.761058
3.31429e-16
8.72052e-15
2.22003e-13
5.26001e-12
1.15318e-10
2.32353e-09
4.26837e-08
7.08022e-07
1.04801e-05
0.000136388
0.00153098
0.014449
0.110613
0.650867
2.69292
6.6096
6.61099
2.70736
0.761479
3.32099e-16
8.73812e-15
2.22449e-13
5.27047e-12
1.15543e-10
2.32798e-09
4.27629e-08
7.09284e-07
1.04978e-05
0.000136601
0.00153313
0.0144663
0.110712
0.651158
2.69257
6.60943
6.61082
2.70703
0.76187
3.32955e-16
8.76008e-15
2.22992e-13
5.2829e-12
1.15805e-10
2.333e-09
4.28502e-08
7.10637e-07
1.05162e-05
0.000136817
0.00153525
0.0144827
0.1108
0.651381
2.6921
6.60907
6.61047
2.70657
0.762181
3.33722e-16
8.77943e-15
2.23462e-13
5.29349e-12
1.16024e-10
2.33714e-09
4.29208e-08
7.1171e-07
1.05305e-05
0.000136982
0.00153681
0.0144941
0.110854
0.651436
2.69121
6.60818
6.60958
2.70569
0.76229
3.34048e-16
8.78758e-15
2.23659e-13
5.29789e-12
1.16115e-10
2.33884e-09
4.29495e-08
7.12142e-07
1.05362e-05
0.000137045
0.00153736
0.0144973
0.110857
0.65127
2.68984
6.60664
6.60804
2.70433
0.762127
3.34132e-16
8.78969e-15
2.2371e-13
5.29902e-12
1.16138e-10
2.33927e-09
4.29566e-08
7.12246e-07
1.05375e-05
0.000137056
0.0015374
0.0144963
0.110832
0.650986
2.68824
6.60478
6.60618
2.70273
0.761818
3.34148e-16
8.79007e-15
2.23719e-13
5.29922e-12
1.16142e-10
2.33934e-09
4.29576e-08
7.12255e-07
1.05374e-05
0.000137051
0.00153726
0.0144937
0.110796
0.650656
2.68659
6.60282
6.60422
2.70107
0.761452
3.34148e-16
8.79004e-15
2.23718e-13
5.29918e-12
1.1614e-10
2.3393e-09
4.29566e-08
7.12229e-07
1.05368e-05
0.000137038
0.00153702
0.01449
0.110752
0.650288
2.68488
6.60073
6.60213
2.69936
0.76104
3.34126e-16
8.7893e-15
2.23695e-13
5.29855e-12
1.16125e-10
2.33894e-09
4.29491e-08
7.12087e-07
1.05344e-05
0.000136999
0.00153646
0.0144831
0.110683
0.649783
2.68268
6.59746
6.59886
2.69716
0.760464
3.33944e-16
8.78313e-15
2.23506e-13
5.29338e-12
1.15997e-10
2.33611e-09
4.28925e-08
7.11074e-07
1.05182e-05
0.000136774
0.00153374
0.0144553
0.110452
0.648335
2.67667
6.58467
6.58606
2.6911
0.75877
3.3273e-16
8.74172e-15
2.22237e-13
5.2586e-12
1.15141e-10
2.31711e-09
4.25148e-08
7.04382e-07
1.04135e-05
0.000135345
0.00151705
0.0142923
0.10917
0.640652
2.6448
6.50799
6.50935
2.65898
0.749701
3.2655e-16
8.53027e-15
2.15738e-13
5.08022e-12
1.10739e-10
2.21944e-09
4.05719e-08
6.69958e-07
9.87551e-06
0.000128025
0.00143189
0.013466
0.102715
0.602183
2.48474
6.11439
6.11554
2.49768
0.704226
3.04954e-16
7.78863e-15
1.92884e-13
4.45151e-12
9.51971e-11
1.87397e-09
3.36894e-08
5.47868e-07
7.96543e-06
0.000102017
0.00112918
0.010528
0.0797629
0.465338
1.91431
4.70504
4.70546
1.92279
0.542452
2.63108e-16
6.34725e-15
1.48368e-13
3.22466e-12
6.48186e-11
1.19769e-09
2.01981e-08
3.08228e-07
4.2117e-06
5.08477e-05
0.000532986
0.00473596
0.0344706
0.195028
0.786169
1.91342
1.91239
0.785837
0.222932
2.41513e-16
5.60555e-15
1.2551e-13
2.59575e-12
4.92698e-11
8.52022e-10
1.3311e-08
1.86045e-07
2.30002e-06
2.48172e-05
0.000230026
0.00179594
0.0115074
0.0581565
0.215764
0.504076
0.502322
0.210973
0.0611211
2.3531e-16
5.3933e-15
1.18985e-13
2.41658e-12
4.4847e-11
7.53828e-10
1.13568e-08
1.51408e-07
1.75854e-06
1.745e-05
0.000144354
0.000965412
0.00502989
0.0196331
0.0557619
0.1105
0.108542
0.0497173
0.0155697
2.34036e-16
5.35004e-15
1.1766e-13
2.38026e-12
4.39508e-11
7.33923e-10
1.09602e-08
1.44369e-07
1.64832e-06
1.59482e-05
0.000126878
0.000796127
0.00371423
0.0118698
0.0239708
0.0338624
0.0318643
0.0176759
0.00638542
2.33741e-16
5.34048e-15
1.17374e-13
2.37251e-12
4.37602e-11
7.29684e-10
1.08754e-08
1.42854e-07
1.62448e-06
1.56223e-05
0.000123091
0.000759803
0.00343835
0.0103121
0.0180592
0.0211215
0.0191164
0.0117164
0.0045367
2.33482e-16
5.33318e-15
1.17175e-13
2.36748e-12
4.36429e-11
7.27175e-10
1.08267e-08
1.42009e-07
1.61151e-06
1.54499e-05
0.000121155
0.000742058
0.00331216
0.00966926
0.0160163
0.0179274
0.0159206
0.00965571
0.0037677
2.32768e-16
5.31535e-15
1.16742e-13
2.35767e-12
4.34364e-11
7.23176e-10
1.07561e-08
1.40884e-07
1.5956e-06
1.52541e-05
0.00011911
0.000724585
0.00319644
0.00912444
0.0144552
0.0158952
0.01389
0.0080887
0.00312221
2.2955e-16
5.24019e-15
1.15046e-13
2.32226e-12
4.27568e-11
7.11271e-10
1.05675e-08
1.38213e-07
1.56221e-06
1.48924e-05
0.000115794
0.000699721
0.0030514
0.00851772
0.0128802
0.0139187
0.0119346
0.00656978
0.00247547
2.14806e-16
4.90227e-15
1.0759e-13
2.17078e-12
3.99448e-11
6.63992e-10
9.85525e-09
1.28725e-07
1.4523e-06
1.38085e-05
0.000106951
0.000642331
0.00277134
0.00757274
0.0109213
0.011575
0.00970945
0.00497765
0.00180072
1.64435e-16
3.75195e-15
8.23228e-14
1.66043e-12
3.05404e-11
5.07375e-10
7.52501e-09
9.81887e-08
1.10625e-06
1.04975e-05
8.10684e-05
0.000484613
0.00207374
0.00557197
0.00772223
0.00803999
0.00660512
0.00314472
0.00107914
6.70612e-17
1.5285e-15
3.35015e-14
6.74974e-13
1.24007e-11
2.05771e-10
3.04801e-09
3.97179e-08
4.46822e-07
4.23293e-06
3.26239e-05
0.000194516
0.000829222
0.00221309
0.00302172
0.00312409
0.00254491
0.0011741
0.000393015
1.72884e-17
3.93511e-16
8.61347e-15
1.73307e-13
3.17966e-12
5.26882e-11
7.7934e-10
1.01405e-08
1.13906e-07
1.07734e-06
8.28876e-06
4.93227e-05
0.000209742
0.000557726
0.000756232
0.000779241
0.000632158
0.00028724
9.49622e-05
3.1966e-18
7.26525e-17
1.58801e-15
3.19055e-14
5.8452e-13
9.67153e-12
1.42844e-10
1.85583e-09
2.0814e-08
1.9655e-07
1.50971e-06
8.96774e-06
3.80589e-05
0.000100946
0.000136334
0.000140211
0.000113468
5.11128e-05
1.67792e-05
4.57821e-19
1.03896e-17
2.26759e-16
4.54921e-15
8.32193e-14
1.37489e-12
2.02759e-11
2.63022e-10
2.94535e-09
2.77698e-08
2.12958e-07
1.26288e-06
5.35013e-06
1.4162e-05
1.90772e-05
1.95946e-05
1.58311e-05
7.09191e-06
2.31789e-06
5.33763e-20
1.20945e-18
2.63576e-17
5.27992e-16
9.64411e-15
1.59093e-13
2.34261e-12
3.03421e-11
3.3925e-10
3.19358e-09
2.44519e-08
1.44771e-07
6.12304e-07
1.61797e-06
2.1755e-06
2.23242e-06
1.80143e-06
8.03905e-07
2.61974e-07
5.24189e-21
1.18592e-19
2.58062e-18
5.16171e-17
9.41397e-16
1.55061e-14
2.27975e-13
2.94828e-12
3.29133e-11
3.09354e-10
2.3649e-09
1.39797e-08
5.90335e-08
1.55747e-07
2.09117e-07
2.14435e-07
1.72868e-07
7.69265e-08
2.50173e-08
4.44498e-22
1.00407e-20
2.18164e-19
4.35711e-18
7.93454e-17
1.30494e-15
1.91565e-14
2.47361e-13
2.75719e-12
2.5875e-11
1.97499e-10
1.16568e-09
4.91489e-09
1.29479e-08
1.73648e-08
1.7796e-08
1.43347e-08
6.36518e-09
2.06698e-09
3.31602e-23
7.47891e-22
1.62259e-20
3.23572e-19
5.88353e-18
9.66159e-17
1.41616e-15
1.82584e-14
2.03205e-13
1.90406e-12
1.45111e-11
8.55166e-11
3.60027e-10
9.47141e-10
1.26903e-09
1.29989e-09
1.04633e-09
4.63815e-10
1.50454e-10
2.20798e-24
4.97215e-23
1.07712e-21
2.14475e-20
3.89394e-19
6.38475e-18
9.34432e-17
1.20292e-15
1.33674e-14
1.25063e-13
9.51671e-13
5.59993e-12
2.35413e-11
6.18484e-11
8.27991e-11
8.47765e-11
6.8197e-11
3.0188e-11
9.78479e-12
1.25539e-25
2.82291e-24
6.10673e-23
1.21425e-21
2.20145e-20
3.60451e-19
5.26783e-18
6.77177e-17
7.51429e-16
7.02021e-15
5.33442e-14
3.13452e-13
1.31591e-12
3.45296e-12
4.61944e-12
4.72804e-12
3.80136e-12
1.68084e-12
5.44507e-13
)
;

boundaryField
{
    top
    {
        type            zeroGradient;
    }
    left
    {
        type            fixedValue;
        value           uniform 0;
    }
    bottom
    {
        type            zeroGradient;
    }
    right
    {
        type            zeroGradient;
    }
    frontAndBack
    {
        type            empty;
    }
}


// ************************************************************************* //
