/*--------------------------------*- C++ -*----------------------------------*\
| =========                 |                                                 |
| \\      /  F ield         | OpenFOAM: The Open Source CFD Toolbox           |
|  \\    /   O peration     | Version:  v1806                                 |
|   \\  /    A nd           | Web:      www.OpenFOAM.com                      |
|    \\/     M anipulation  |                                                 |
\*---------------------------------------------------------------------------*/
FoamFile
{
    version     2.0;
    format      ascii;
    class       volScalarField;
    location    "0.06";
    object      T;
}
// * * * * * * * * * * * * * * * * * * * * * * * * * * * * * * * * * * * * * //

dimensions      [0 0 0 1 0 0 0];


internalField   nonuniform List<scalar> 
1881
(
3.95147e-30
4.71807e-30
3.86596e-29
7.99221e-28
1.59159e-26
2.87761e-25
4.66857e-24
6.70422e-23
8.3702e-22
8.86468e-21
7.68096e-20
5.12999e-19
2.33942e-18
4.7826e-18
-1.46164e-17
-1.04663e-16
-1.06695e-16
-1.73315e-17
5.50573e-18
-7.96248e-29
-8.03334e-29
2.49468e-29
2.7605e-27
6.43828e-26
1.32918e-24
2.48538e-23
4.1757e-22
6.23126e-21
8.13875e-20
9.12892e-19
8.57241e-18
6.50299e-17
3.77859e-16
1.5417e-15
3.75283e-15
3.75381e-15
1.55062e-15
4.43246e-16
-1.76325e-28
-1.7849e-28
-2.13406e-28
-4.79348e-28
6.6813e-27
4.07234e-25
1.23163e-23
2.82167e-22
5.2901e-21
8.27588e-20
1.07787e-18
1.15001e-17
9.75245e-17
6.2513e-16
2.77735e-15
7.22036e-15
7.23516e-15
2.81029e-15
7.33693e-16
5.50297e-28
5.71235e-28
-3.79431e-28
-2.39925e-26
-5.19509e-25
-9.97774e-24
-1.73397e-22
-2.70295e-21
-3.7327e-20
-4.49567e-19
-4.62818e-18
-3.96523e-17
-2.72469e-16
-1.42259e-15
-5.18281e-15
-1.13593e-14
-1.13273e-14
-5.16716e-15
-1.66793e-15
3.69592e-27
3.75544e-27
1.33282e-27
-6.29726e-26
-1.51508e-24
-3.13783e-23
-5.88e-22
-9.90174e-21
-1.48129e-19
-1.93996e-18
-2.18232e-17
-2.05571e-16
-1.56468e-15
-9.12384e-15
-3.73599e-14
-9.1231e-14
-9.12618e-14
-3.75848e-14
-1.0702e-14
2.79771e-27
2.48016e-27
2.92875e-27
1.34325e-26
-3.88592e-26
-6.93266e-24
-2.37766e-22
-5.72738e-21
-1.1035e-19
-1.75668e-18
-2.31622e-17
-2.49432e-16
-2.13091e-15
-1.3742e-14
-6.13582e-14
-1.60108e-13
-1.60438e-13
-6.20864e-14
-1.61188e-14
-3.84795e-26
-4.04142e-26
-2.05937e-26
5.20192e-25
1.19357e-23
2.30439e-22
4.0177e-21
6.28633e-20
8.72013e-19
1.0559e-17
1.09406e-16
9.447e-16
6.55353e-15
3.46161e-14
1.27872e-13
2.84311e-13
2.83662e-13
1.27673e-13
4.06082e-14
-1.3327e-25
-1.33645e-25
-7.76609e-26
1.36e-24
3.37116e-23
6.98014e-22
1.30667e-20
2.19877e-19
3.28794e-18
4.30553e-17
4.84426e-16
4.56528e-15
3.47731e-14
2.02961e-13
8.32032e-13
2.03409e-12
2.03481e-12
8.3707e-13
2.38044e-13
1.24498e-25
1.51679e-25
1.75484e-25
7.99307e-26
3.13583e-24
1.84563e-22
5.66469e-21
1.30765e-19
2.46322e-18
3.86706e-17
5.05142e-16
5.40404e-15
4.59458e-14
2.95254e-13
1.31496e-12
3.42563e-12
3.43226e-12
1.32993e-12
3.46106e-13
1.89902e-24
1.97845e-24
1.62278e-24
-9.42742e-24
-2.43417e-22
-4.71757e-21
-8.21873e-20
-1.2849e-18
-1.78126e-17
-2.15606e-16
-2.23369e-15
-1.92905e-14
-1.33887e-13
-7.0781e-13
-2.61799e-12
-5.82958e-12
-5.81706e-12
-2.61503e-12
-8.30734e-13
3.25756e-24
3.11634e-24
1.71473e-24
-2.86674e-23
-7.03107e-22
-1.44796e-20
-2.69883e-19
-4.52414e-18
-6.74248e-17
-8.80303e-16
-9.87876e-15
-9.28883e-14
-7.06151e-13
-4.11498e-12
-1.68478e-11
-4.11526e-11
-4.11656e-11
-1.69476e-11
-4.82584e-12
-1.40125e-23
-1.53692e-23
-1.72418e-23
-2.29895e-23
-2.17822e-22
-6.32904e-21
-1.57985e-19
-3.29793e-18
-5.84973e-17
-8.82243e-16
-1.11985e-14
-1.17255e-13
-9.80491e-13
-6.21906e-12
-2.74174e-11
-7.09177e-11
-7.10373e-11
-2.77041e-11
-7.28657e-12
-7.10129e-23
-7.27317e-23
-6.65016e-23
1.3302e-22
4.33605e-21
8.42522e-20
1.45999e-18
2.26881e-17
3.12503e-16
3.75616e-15
3.86143e-14
3.30592e-13
2.27178e-12
1.18726e-11
4.33402e-11
9.52482e-11
9.50188e-11
4.32656e-11
1.39435e-11
-1.03053e-23
1.37885e-24
4.13894e-23
6.4559e-22
1.36502e-20
2.76959e-19
5.12371e-18
8.53289e-17
1.26401e-15
1.64104e-14
1.83196e-13
1.7142e-12
1.2973e-11
7.52853e-11
3.07105e-10
7.47995e-10
7.48168e-10
3.0884e-10
8.82873e-11
7.66413e-22
8.13715e-22
8.86224e-22
1.22188e-21
8.97227e-21
1.99739e-19
4.33312e-18
8.27634e-17
1.37972e-15
1.98738e-14
2.43469e-13
2.47834e-12
2.02551e-11
1.26089e-10
5.47535e-10
1.40086e-09
1.40277e-09
5.52631e-10
1.47692e-10
1.85779e-21
1.83493e-21
1.66537e-21
-1.49482e-21
-6.56116e-20
-1.26847e-18
-2.17062e-17
-3.32565e-16
-4.50845e-15
-5.32162e-14
-5.35669e-13
-4.47288e-12
-2.98206e-11
-1.50149e-10
-5.23706e-10
-1.09601e-09
-1.09207e-09
-5.21383e-10
-1.76574e-10
-4.19652e-21
-4.76992e-21
-5.97709e-21
-1.71474e-20
-2.44099e-19
-4.78319e-18
-8.75458e-17
-1.44498e-15
-2.12249e-14
-2.73343e-13
-3.02793e-12
-2.81233e-11
-2.11325e-10
-1.2181e-09
-4.93801e-09
-1.19669e-08
-1.19682e-08
-4.96393e-09
-1.42855e-09
-2.90733e-20
-3.00463e-20
-3.16491e-20
-4.18915e-20
-2.6504e-19
-5.22595e-18
-1.04735e-16
-1.8841e-15
-2.99513e-14
-4.15027e-13
-4.92301e-12
-4.8765e-11
-3.89381e-10
-2.3762e-09
-1.01482e-08
-2.56448e-08
-2.56712e-08
-1.0231e-08
-2.78318e-09
-1.65403e-20
-1.23066e-20
-4.77899e-21
4.0161e-20
8.17112e-19
1.49071e-17
2.4722e-16
3.66015e-15
4.76373e-14
5.34875e-13
5.05373e-12
3.88232e-11
2.30613e-10
9.79155e-10
2.60236e-09
3.52364e-09
3.46198e-09
2.53919e-09
1.15841e-09
2.74168e-19
2.93181e-19
3.25114e-19
5.10639e-19
3.9733e-18
7.21578e-17
1.30095e-15
2.12301e-14
3.08451e-13
3.92996e-12
4.30757e-11
3.95926e-10
2.94456e-09
1.68023e-08
6.74648e-08
1.62204e-07
1.62192e-07
6.7782e-08
1.97096e-08
7.18277e-19
7.08882e-19
7.03151e-19
8.96569e-19
5.82878e-18
1.10829e-16
2.12485e-15
3.67719e-14
5.65232e-13
7.60479e-12
8.78852e-11
8.50557e-10
6.65204e-09
3.98515e-08
1.67497e-07
4.18121e-07
4.18423e-07
1.68692e-07
4.66832e-08
-1.51607e-18
-1.74277e-18
-2.05845e-18
-2.69749e-18
-8.85799e-18
-1.06766e-16
-1.54398e-15
-1.95682e-14
-2.01911e-13
-1.50287e-12
-4.4783e-12
7.18619e-11
1.39537e-09
1.29503e-08
7.16878e-08
2.12856e-07
2.13702e-07
7.30721e-08
1.50113e-08
-1.04488e-17
-1.07647e-17
-1.12521e-17
-1.3657e-17
-5.71242e-17
-9.00708e-16
-1.58823e-14
-2.5528e-13
-3.65396e-12
-4.5855e-11
-4.94904e-10
-4.47753e-09
-3.27661e-08
-1.83927e-07
-7.2668e-07
-1.72316e-06
-1.72253e-06
-7.29493e-07
-2.1587e-07
-2.74715e-18
-7.76332e-19
1.6703e-18
7.43265e-19
-8.27147e-17
-1.8575e-15
-3.49702e-14
-5.89611e-13
-8.8436e-12
-1.16316e-10
-1.31624e-09
-1.2492e-08
-9.59389e-08
-5.65219e-07
-2.34033e-06
-5.77386e-06
-5.77644e-06
-2.35497e-06
-6.62302e-07
1.08407e-16
1.15613e-16
1.24849e-16
1.34366e-16
1.31317e-16
-3.25754e-16
-1.26277e-14
-2.76434e-13
-5.0215e-12
-7.70437e-11
-9.91386e-10
-1.05011e-08
-8.87117e-08
-5.67909e-07
-2.52465e-06
-6.57416e-06
-6.58382e-06
-2.54869e-06
-6.63532e-07
2.21116e-16
2.11594e-16
1.99573e-16
2.02786e-16
5.8508e-16
8.24656e-15
1.41537e-13
2.21896e-12
3.09327e-11
3.77367e-10
3.95081e-09
3.45864e-08
2.44213e-07
1.31892e-06
5.00391e-06
1.14356e-05
1.1423e-05
5.01346e-06
1.55052e-06
-8.25209e-16
-9.26889e-16
-1.05404e-15
-1.14041e-15
-1.32487e-16
2.28478e-14
4.44074e-13
7.35372e-12
1.08114e-10
1.39461e-09
1.54882e-08
1.44357e-07
1.08952e-06
6.31309e-06
2.57418e-05
6.27263e-05
6.27377e-05
2.58822e-05
7.40093e-06
-3.9756e-15
-4.05364e-15
-4.14075e-15
-4.15783e-15
-2.96652e-15
2.33574e-14
5.32921e-13
9.37605e-12
1.4542e-10
1.973e-09
2.29901e-08
2.24327e-07
1.76871e-06
1.06811e-05
4.52365e-05
0.000113644
0.000113729
4.55586e-05
1.25e-05
2.38903e-15
3.44529e-15
4.78524e-15
6.17928e-15
5.86722e-15
-2.70222e-14
-5.77633e-13
-8.3515e-12
-1.03118e-10
-1.07595e-09
-9.13348e-09
-5.89543e-08
-2.48452e-07
-3.18381e-07
3.0579e-06
1.62667e-05
1.64315e-05
3.26638e-06
-4.30779e-07
5.06936e-14
5.36397e-14
5.71975e-14
6.0314e-14
5.31343e-14
-1.5363e-13
-3.8957e-12
-6.39722e-11
-9.20932e-10
-1.16218e-08
-1.26244e-07
-1.15069e-06
-8.49213e-06
-4.81202e-05
-0.000192037
-0.000459586
-0.000459513
-0.000192896
-5.6465e-05
6.59908e-14
5.90896e-14
5.00448e-14
3.84326e-14
5.28045e-15
-4.27865e-13
-8.16923e-12
-1.36523e-10
-2.03285e-09
-2.65715e-08
-2.99082e-07
-2.82567e-06
-2.16203e-05
-0.000126997
-0.000524683
-0.00129269
-0.00129315
-0.000527796
-0.000148765
-4.73068e-13
-5.21604e-13
-5.81073e-13
-6.44522e-13
-7.21625e-13
-1.05056e-12
-6.45366e-12
-1.03477e-10
-1.65589e-09
-2.32522e-08
-2.79439e-07
-2.803e-06
-2.26558e-05
-0.000139897
-0.000604149
-0.00154082
-0.00154224
-0.00060876
-0.000163475
-1.68187e-12
-1.69446e-12
-1.70319e-12
-1.69656e-12
-1.62479e-12
-6.24675e-13
1.5787e-11
2.65459e-10
3.63819e-09
4.3322e-08
4.41254e-07
3.74407e-06
2.55049e-05
0.000132151
0.000478368
0.00104374
0.00104185
0.000478554
0.000155837
2.33721e-12
2.89068e-12
3.57338e-12
4.32993e-12
5.32255e-12
9.77405e-12
7.4917e-11
1.11433e-09
1.60593e-08
2.04463e-07
2.24349e-06
2.06715e-05
0.000154322
0.000885073
0.00357546
0.00864855
0.00864877
0.00359327
0.00103792
2.43404e-11
2.55788e-11
2.7012e-11
2.84303e-11
3.00638e-11
3.73666e-11
1.50391e-10
2.01192e-09
2.95362e-08
3.86225e-07
4.35459e-06
4.12266e-05
0.000316186
0.00186209
0.00771402
0.0190516
0.0190584
0.00775954
0.00218042
1.99763e-11
1.58366e-11
1.06258e-11
4.60306e-12
-2.13903e-12
-6.32611e-12
5.8223e-11
1.36369e-09
2.21755e-08
3.09188e-07
3.68837e-06
3.6769e-05
0.000295693
0.00181844
0.00782822
0.019922
0.019938
0.00788448
0.00212407
-2.4627e-10
-2.69134e-10
-2.96085e-10
-3.24278e-10
-3.53894e-10
-3.943e-10
-6.05374e-10
-3.39183e-09
-4.06254e-08
-4.78098e-07
-4.86295e-06
-4.12559e-05
-0.000281134
-0.00145788
-0.00528463
-0.0115507
-0.0115319
-0.0052898
-0.00172043
-7.14624e-10
-7.10567e-10
-7.02169e-10
-6.86649e-10
-6.64557e-10
-6.71075e-10
-1.34506e-09
-1.28594e-08
-1.78698e-07
-2.26333e-06
-2.47571e-05
-0.000227493
-0.00169427
-0.00969705
-0.0391076
-0.0944848
-0.0944846
-0.0392991
-0.0113724
1.47963e-09
1.75871e-09
2.09006e-09
2.44898e-09
2.83116e-09
3.16943e-09
2.24981e-09
-1.96186e-08
-3.45853e-07
-4.535e-06
-5.06832e-05
-0.00047544
-0.00361481
-0.0211181
-0.0868615
-0.213334
-0.213384
-0.0873413
-0.024734
1.12143e-08
1.1716e-08
1.22635e-08
1.27793e-08
1.32438e-08
1.3572e-08
1.23878e-08
-1.29746e-08
-3.96136e-07
-5.42068e-06
-6.19634e-05
-0.000593361
-0.00460164
-0.0273964
-0.11467
-0.285624
-0.285745
-0.11536
-0.0320466
4.60869e-09
2.28801e-09
-5.16518e-10
-3.70347e-09
-7.29616e-09
-1.13272e-08
-1.60827e-08
-2.72015e-08
-1.44451e-07
-1.85634e-06
-2.36261e-05
-0.000251098
-0.00213142
-0.013714
-0.0612759
-0.160265
-0.160433
-0.0617541
-0.0159619
-1.21567e-07
-1.32098e-07
-1.43958e-07
-1.56167e-07
-1.68592e-07
-1.80972e-07
-1.90329e-07
-1.51956e-07
5.46038e-07
9.21127e-06
0.000100099
0.000894292
0.00645513
0.0357651
0.139644
0.328085
0.327954
0.140191
0.042038
-2.89824e-07
-2.8296e-07
-2.73181e-07
-2.59612e-07
-2.41754e-07
-2.18725e-07
-1.81784e-07
2.13524e-09
2.20697e-06
2.95189e-05
0.000324499
0.00299078
0.0223504
0.12842
0.52008
1.26136
1.2614
0.522667
0.150551
8.5502e-07
9.93683e-07
1.15085e-06
1.31856e-06
1.49628e-06
1.68474e-06
1.89954e-06
2.38971e-06
6.70546e-06
5.90429e-05
0.000628746
0.00583165
0.0440183
0.255553
1.04538
2.55676
2.55711
1.05085
0.299359
5.03576e-06
5.22275e-06
5.40918e-06
5.57233e-06
5.70535e-06
5.80832e-06
5.90052e-06
6.34701e-06
1.24639e-05
9.08658e-05
0.000953122
0.00887592
0.0673583
0.393175
1.61667
3.97094
3.97166
1.62529
0.460363
-2.40559e-07
-1.45507e-06
-2.83153e-06
-4.33406e-06
-6.01461e-06
-7.92339e-06
-1.00759e-05
-1.20386e-05
-6.96265e-06
9.09576e-05
0.00120108
0.0114618
0.0874846
0.512512
2.1141
5.20628
5.20734
2.12546
0.599905
-5.83926e-05
-6.25015e-05
-6.68141e-05
-7.09696e-05
-7.59737e-05
-8.16404e-05
-8.77583e-05
-9.37322e-05
-9.05239e-05
2.0535e-05
0.00129922
0.0131479
0.10112
0.593996
2.4552
6.056
6.05731
2.46845
0.695184
-0.000114891
-0.000111601
-0.000107778
-9.83423e-05
-8.331e-05
-6.27493e-05
-3.67098e-05
-9.6081e-06
2.68405e-05
0.000177701
0.0015729
0.0142493
0.10827
0.635504
2.62867
6.48908
6.49054
2.64296
0.743771
0.00033557
0.000365265
0.000396427
0.000624199
0.000852992
0.00108276
0.0013133
0.00134898
0.0013938
0.00155472
0.00298237
0.0159025
0.111733
0.649333
2.68261
6.62252
6.62402
2.6972
0.759698
0.00177324
0.00180508
0.00184031
0.00206206
0.00228355
0.00250477
0.00272559
0.00276029
0.00280406
0.00296369
0.00438831
0.0172908
0.113004
0.649986
2.68107
6.61696
6.61845
2.69562
0.760205
0.00317057
0.00319863
0.00323201
0.00344192
0.00365154
0.00386087
0.00406978
0.00410265
0.00414454
0.00430178
0.00571845
0.0185617
0.11384
0.648357
2.66999
6.58732
6.58881
2.68447
0.758067
0.00449285
0.00451718
0.00454847
0.0047464
0.00494405
0.0051414
0.00533834
0.00536934
0.00540934
0.00556447
0.00697657
0.0197927
0.114878
0.648297
2.6657
6.57471
6.57619
2.68015
0.757776
0.0057388
0.00575961
0.00578876
0.00597467
0.0061603
0.00634564
0.00653058
0.00655966
0.00659772
0.00675088
0.00816055
0.02097
0.116018
0.649244
2.66594
6.57361
6.57509
2.68038
0.758669
0.00690705
0.00692448
0.00695136
0.00712514
0.00729867
0.0074719
0.00764473
0.00767179
0.00770784
0.00785889
0.00926554
0.0220635
0.117039
0.649863
2.66506
6.56989
6.57137
2.67947
0.759183
0.00799553
0.00800981
0.00803442
0.00819611
0.0083576
0.00851881
0.00867966
0.00870485
0.00873904
0.00888815
0.0102914
0.0230713
0.117916
0.649988
2.66225
6.56126
6.56272
2.67662
0.759134
0.00900971
0.00902174
0.00904486
0.00919528
0.00934561
0.00949575
0.00964566
0.00967015
0.00970376
0.00985244
0.0112558
0.0240384
0.118895
0.650963
2.66296
6.56101
6.56246
2.67732
0.760113
0.00997275
0.0099835
0.0100059
0.0101456
0.0102856
0.0104256
0.0105655
0.0105902
0.0106235
0.0107719
0.0121812
0.0250285
0.120369
0.655099
2.67687
6.59316
6.59462
2.6913
0.764828
0.0108644
0.0108691
0.0108855
0.0110069
0.0111254
0.0112409
0.0113534
0.0113604
0.0113763
0.0115089
0.0129179
0.025908
0.122433
0.663922
2.71125
6.67666
6.67815
2.72591
0.775074
0.0114505
0.0114405
0.0114421
0.011446
0.0114495
0.0114524
0.0114547
0.011457
0.0114686
0.0115988
0.0130258
0.0262247
0.124382
0.675294
2.75893
6.79546
6.79703
2.77399
0.788497
0.0115185
0.0115065
0.0115054
0.0115068
0.0115086
0.0115104
0.0115123
0.0115148
0.0115266
0.0116579
0.0130947
0.0263954
0.125401
0.681557
2.7867
6.86771
6.86937
2.80204
0.795868
0.0115846
0.0115731
0.0115716
0.0115728
0.0115744
0.011576
0.0115776
0.0115799
0.0115912
0.0117191
0.0131229
0.0261307
0.123049
0.668073
2.73354
6.74257
6.74424
2.74853
0.77984
0.011621
0.011609
0.0116056
0.0116049
0.0116046
0.0116042
0.0116038
0.0116039
0.0116124
0.0117287
0.0130249
0.0250496
0.114679
0.619126
2.53328
6.25488
6.25634
2.54674
0.721834
0.0115471
0.0115332
0.0115257
0.0115207
0.011516
0.0115112
0.0115063
0.0115017
0.0115043
0.0115992
0.0127003
0.0229245
0.0990432
0.527333
2.15397
5.32269
5.32367
2.1644
0.613166
0.0112674
0.01125
0.0112366
0.0112251
0.0112139
0.0112025
0.011191
0.0111796
0.0111739
0.0112397
0.0120781
0.0198638
0.0775522
0.401212
1.63003
4.02862
4.02886
1.63623
0.463973
0.0107101
0.0106889
0.0106687
0.0106498
0.0106312
0.0106124
0.0105934
0.0105746
0.0105597
0.0105945
0.0111525
0.0163239
0.0541478
0.264438
1.05997
2.61563
2.61504
1.06155
0.302297
0.00986262
0.00983809
0.00981198
0.00978666
0.00976147
0.00973619
0.0097108
0.00968548
0.00966275
0.00967101
0.00998921
0.0129126
0.0335729
0.145455
0.563233
1.38093
1.37959
0.560773
0.161769
0.00877938
0.00875307
0.00872317
0.00869356
0.00866406
0.00863453
0.00860494
0.00857545
0.00854766
0.00853845
0.0086956
0.0100982
0.0190827
0.0636947
0.222101
0.531129
0.529256
0.216852
0.0653069
0.00755713
0.00753073
0.00749948
0.00746814
0.00743689
0.00740566
0.00737442
0.00734331
0.00731352
0.00729627
0.00737468
0.00802157
0.0111501
0.0217775
0.0483903
0.0977971
0.0956402
0.0416781
0.0159338
0.00629397
0.0062688
0.00623808
0.00620701
0.006176
0.00614503
0.0061141
0.00608331
0.00605378
0.0060352
0.0060927
0.00652432
0.00793389
0.00838453
-0.00500424
-0.0350232
-0.0372859
-0.0122278
0.000242566
0.00506011
0.00503687
0.00500782
0.00497818
0.00494859
0.00491904
0.00488956
0.00486023
0.00483221
0.00481542
0.00487725
0.00533305
0.00688955
0.00804908
-0.00296184
-0.0286769
-0.0309439
-0.0101987
2.74524e-05
0.0038961
0.00387519
0.00384846
0.00382101
0.00379357
0.0037662
0.0037389
0.00371178
0.00368599
0.00367166
0.00373954
0.00424313
0.00619722
0.0097912
0.00844562
0.00180104
-0.00039329
0.00146973
0.00248959
0.00283134
0.00281316
0.00278949
0.00276504
0.00274059
0.00271623
0.00269196
0.00266789
0.00264509
0.00263307
0.00269921
0.00318941
0.00518094
0.00956053
0.012368
0.0142437
0.0122255
0.00596018
0.00304302
0.00190116
0.00188626
0.00186657
0.00184615
0.00182574
0.00180543
0.00178526
0.00176529
0.00174642
0.00173671
0.00179323
0.00220985
0.0039052
0.00764734
0.010092
0.0118227
0.0101123
0.00465415
0.002125
0.00114621
0.00113507
0.00112018
0.00110468
0.00108923
0.00107389
0.00105869
0.00104369
0.00102956
0.00102232
0.00106462
0.00137549
0.00262987
0.00530524
0.006536
0.00662461
0.00533389
0.00242392
0.00110579
0.000595517
0.000588178
0.000578297
0.000568006
0.000557765
0.000547641
0.000537643
0.00052781
0.000518571
0.000513788
0.000540883
0.000740687
0.0015451
0.00323364
0.0038399
0.00351495
0.00268038
0.00117593
0.000507012
0.000248106
0.000244051
0.000238563
0.000232852
0.00022719
0.000221618
0.000216143
0.000210784
0.000205762
0.00020309
0.000217117
0.000321883
0.000746121
0.0016453
0.00200109
0.00190252
0.00146513
0.000602471
0.000216664
6.86844e-05
6.69544e-05
6.46063e-05
6.21693e-05
5.97686e-05
5.74236e-05
5.51363e-05
5.29136e-05
5.08374e-05
4.96606e-05
5.47867e-05
9.43116e-05
0.000256165
0.000606009
0.000773546
0.000801479
0.000636472
0.00024471
6.77842e-05
8.71719e-07
4.23391e-07
-1.85442e-07
-8.11258e-07
-1.41798e-06
-1.99996e-06
-2.55695e-06
-3.08835e-06
-3.58206e-06
-3.92135e-06
-3.25043e-06
2.96599e-06
2.92638e-05
8.7579e-05
0.000118815
0.000131574
0.000105031
3.30671e-05
6.98811e-07
-1.1088e-05
-1.10521e-05
-1.10024e-05
-1.09461e-05
-1.08839e-05
-1.08158e-05
-1.07422e-05
-1.0664e-05
-1.05898e-05
-1.05939e-05
-1.12004e-05
-1.50965e-05
-3.05771e-05
-6.37519e-05
-8.07268e-05
-8.55095e-05
-6.97721e-05
-3.06514e-05
-1.27465e-05
-5.75877e-06
-5.65936e-06
-5.52371e-06
-5.38137e-06
-5.2392e-06
-5.09832e-06
-4.95895e-06
-4.82177e-06
-4.69363e-06
-4.6364e-06
-5.09289e-06
-8.36169e-06
-2.16173e-05
-5.01169e-05
-6.32871e-05
-6.45037e-05
-5.09875e-05
-1.99904e-05
-6.03196e-06
-7.48585e-07
-7.06931e-07
-6.5031e-07
-5.91733e-07
-5.34409e-07
-4.7885e-07
-4.25111e-07
-3.7332e-07
-3.25121e-07
-2.95832e-07
-3.96538e-07
-1.20962e-06
-4.56362e-06
-1.17296e-05
-1.4338e-05
-1.31215e-05
-9.67125e-06
-3.2164e-06
-3.89105e-07
6.42431e-07
6.42887e-07
6.43362e-07
6.4346e-07
6.43021e-07
6.42024e-07
6.4049e-07
6.38491e-07
6.36598e-07
6.39759e-07
6.82837e-07
9.44335e-07
1.97292e-06
4.1549e-06
5.17084e-06
5.26332e-06
4.21518e-06
1.8355e-06
7.54208e-07
3.31686e-07
3.24937e-07
3.15706e-07
3.06014e-07
2.9634e-07
2.86765e-07
2.77304e-07
2.68008e-07
2.59359e-07
2.55741e-07
2.88631e-07
5.21837e-07
1.4662e-06
3.47684e-06
4.26252e-06
4.03066e-06
3.06261e-06
1.1542e-06
3.07424e-07
-9.80987e-09
-1.18577e-08
-1.46284e-08
-1.7467e-08
-2.02074e-08
-2.28231e-08
-2.53127e-08
-2.76749e-08
-2.98724e-08
-3.15289e-08
-2.982e-08
-9.45296e-09
7.95407e-08
2.78234e-07
3.70654e-07
3.85006e-07
2.94747e-07
7.58673e-08
-2.03964e-08
-5.34541e-08
-5.28628e-08
-5.20453e-08
-5.11688e-08
-5.02707e-08
-4.93579e-08
-4.84328e-08
-4.75035e-08
-4.66434e-08
-4.651e-08
-5.18074e-08
-8.69448e-08
-2.27843e-07
-5.27244e-07
-6.47202e-07
-6.18597e-07
-4.74506e-07
-1.85231e-07
-5.62684e-08
-7.46927e-09
-7.04577e-09
-6.47002e-09
-5.87349e-09
-5.28869e-09
-4.72096e-09
-4.17098e-09
-3.64032e-09
-3.14742e-09
-2.86401e-09
-4.04264e-09
-1.33053e-08
-5.17653e-08
-1.35911e-07
-1.75984e-07
-1.83129e-07
-1.44156e-07
-5.00853e-08
-8.1011e-09
7.14511e-09
7.10787e-09
7.05494e-09
6.9954e-09
6.93095e-09
6.86196e-09
6.78875e-09
6.71245e-09
6.64291e-09
6.66784e-09
7.41372e-09
1.21289e-08
3.0927e-08
7.10275e-08
8.84872e-08
8.77348e-08
6.86093e-08
2.7226e-08
8.64212e-09
1.57817e-09
1.51238e-09
1.4228e-09
1.32964e-09
1.23788e-09
1.14834e-09
1.06114e-09
9.7662e-10
8.983e-10
8.58826e-10
1.09574e-09
2.86247e-09
1.01437e-08
2.59967e-08
3.32959e-08
3.40733e-08
2.66883e-08
9.45474e-09
1.7802e-09
-1.01121e-09
-1.00722e-09
-1.00144e-09
-9.94762e-10
-9.8732e-10
-9.79157e-10
-9.70316e-10
-9.60968e-10
-9.52621e-10
-9.58723e-10
-1.07553e-09
-1.80335e-09
-4.70711e-09
-1.09448e-08
-1.38744e-08
-1.42466e-08
-1.1307e-08
-4.45298e-09
-1.36447e-09
-1.96543e-10
-1.87234e-10
-1.74572e-10
-1.61422e-10
-1.4849e-10
-1.35893e-10
-1.23648e-10
-1.11799e-10
-1.00829e-10
-9.52316e-11
-1.27771e-10
-3.71629e-10
-1.37691e-09
-3.55046e-09
-4.43833e-09
-4.29523e-09
-3.27077e-09
-1.12564e-09
-1.81422e-10
1.57525e-10
1.56273e-10
1.54521e-10
1.52605e-10
1.50599e-10
1.48516e-10
1.46365e-10
1.44174e-10
1.42213e-10
1.42901e-10
1.63648e-10
2.953e-10
8.22819e-10
1.95434e-09
2.45182e-09
2.44663e-09
1.91142e-09
7.32406e-10
2.0533e-10
8.06155e-12
6.92954e-12
5.39634e-12
3.81509e-12
2.27406e-12
7.87626e-13
-6.42742e-13
-2.0144e-12
-3.29206e-12
-4.13862e-12
-2.05759e-12
1.63188e-11
9.39567e-11
2.62615e-10
3.23495e-10
2.95765e-10
2.16256e-10
6.46507e-11
-6.74252e-13
-2.32983e-11
-2.29424e-11
-2.24532e-11
-2.19342e-11
-2.14096e-11
-2.08839e-11
-2.03583e-11
-1.98374e-11
-1.93678e-11
-1.93736e-11
-2.29194e-11
-4.6074e-11
-1.39414e-10
-3.39351e-10
-4.20365e-10
-4.0458e-10
-3.09632e-10
-1.14488e-10
-2.80905e-11
3.44186e-12
3.51936e-12
3.62284e-12
3.72675e-12
3.82442e-12
3.91483e-12
3.99803e-12
4.07461e-12
4.14894e-12
4.2589e-12
4.67003e-12
6.73303e-12
1.45369e-11
3.05589e-11
3.58977e-11
3.17036e-11
2.37206e-11
1.05303e-11
4.61879e-12
2.04982e-12
1.98643e-12
1.9001e-12
1.80998e-12
1.72073e-12
1.63312e-12
1.54731e-12
1.46376e-12
1.38735e-12
1.36331e-12
1.72144e-12
4.20598e-12
1.43741e-11
3.64807e-11
4.64115e-11
4.69726e-11
3.66813e-11
1.31447e-11
2.7007e-12
-1.13335e-12
-1.12291e-12
-1.10844e-12
-1.09284e-12
-1.07673e-12
-1.06025e-12
-1.04344e-12
-1.02653e-12
-1.01187e-12
-1.02067e-12
-1.20653e-12
-2.3757e-12
-7.07422e-12
-1.71968e-11
-2.16633e-11
-2.16886e-11
-1.69347e-11
-6.3494e-12
-1.63412e-12
1.13861e-13
1.19241e-13
1.26488e-13
1.33888e-13
1.41003e-13
1.47763e-13
1.54166e-13
1.60233e-13
1.66114e-13
1.73085e-13
1.89932e-13
2.60601e-13
5.16394e-13
1.04357e-12
1.30312e-12
1.3459e-12
1.09051e-12
5.00864e-13
2.2681e-13
1.46022e-13
1.42801e-13
1.38417e-13
1.33831e-13
1.29272e-13
1.24779e-13
1.20359e-13
1.16045e-13
1.12205e-13
1.12215e-13
1.40681e-13
3.27566e-13
1.08577e-12
2.72415e-12
3.42083e-12
3.37284e-12
2.60518e-12
9.39958e-13
2.03858e-13
-3.40849e-14
-3.38192e-14
-3.34532e-14
-3.30588e-14
-3.26517e-14
-3.22347e-14
-3.18091e-14
-3.13825e-14
-3.10312e-14
-3.14521e-14
-3.76959e-14
-7.63049e-14
-2.31141e-13
-5.64106e-13
-7.06438e-13
-6.97213e-13
-5.40548e-13
-2.01387e-13
-5.08168e-14
)
;

boundaryField
{
    top
    {
        type            zeroGradient;
    }
    left
    {
        type            fixedValue;
        value           uniform 0;
    }
    bottom
    {
        type            zeroGradient;
    }
    right
    {
        type            zeroGradient;
    }
    frontAndBack
    {
        type            empty;
    }
}


// ************************************************************************* //
