/*--------------------------------*- C++ -*----------------------------------*\
| =========                 |                                                 |
| \\      /  F ield         | OpenFOAM: The Open Source CFD Toolbox           |
|  \\    /   O peration     | Version:  v1806                                 |
|   \\  /    A nd           | Web:      www.OpenFOAM.com                      |
|    \\/     M anipulation  |                                                 |
\*---------------------------------------------------------------------------*/
FoamFile
{
    version     2.0;
    format      ascii;
    class       volScalarField;
    location    "0.015";
    object      T;
}
// * * * * * * * * * * * * * * * * * * * * * * * * * * * * * * * * * * * * * //

dimensions      [0 0 0 1 0 0 0];


internalField   nonuniform List<scalar> 
1881
(
1.05885e-147
7.82975e-146
5.49716e-144
3.6006e-142
2.18727e-140
1.22386e-138
6.25597e-137
2.89258e-135
1.19505e-133
4.34387e-132
1.36142e-130
3.57953e-129
7.59102e-128
1.22138e-126
1.33839e-125
7.83905e-125
7.74365e-125
1.22589e-125
1.09608e-126
2.85844e-145
2.12336e-143
1.49755e-141
9.85349e-140
6.01314e-138
3.38003e-136
1.73573e-134
8.06271e-133
3.34655e-131
1.22211e-129
3.84818e-128
1.01654e-126
2.16589e-125
3.50123e-124
3.85441e-123
2.26745e-122
2.24064e-122
3.53851e-123
3.15475e-124
7.64776e-143
5.70705e-141
4.04329e-139
2.67252e-137
1.63839e-135
9.25183e-134
4.77301e-132
2.22741e-130
9.28826e-129
3.40779e-127
1.07808e-125
2.86126e-124
6.12504e-123
9.94782e-122
1.10021e-120
6.50065e-120
6.42604e-120
1.01234e-120
8.99943e-122
2.01998e-140
1.51432e-138
1.07774e-136
7.15626e-135
4.40733e-133
2.50028e-131
1.29588e-129
6.07563e-128
2.54538e-126
9.38268e-125
2.98226e-123
7.95245e-122
1.71042e-120
2.79104e-119
3.10124e-118
1.84046e-117
1.81996e-117
2.85998e-118
2.53504e-119
5.26556e-138
3.96565e-136
2.8353e-134
1.89131e-132
1.17019e-130
6.66929e-129
3.47276e-127
1.6358e-125
6.8854e-124
2.55005e-122
8.14364e-121
2.18188e-119
4.7151e-118
7.73056e-117
8.63e-116
5.14426e-115
5.08871e-115
7.97652e-116
7.04939e-117
1.35424e-135
1.02465e-133
7.35958e-132
4.93197e-130
3.06566e-128
1.75538e-126
9.18323e-125
4.346e-123
1.83795e-121
6.83924e-120
2.19452e-118
5.90772e-117
1.28277e-115
2.11317e-114
2.37015e-113
1.41912e-112
1.40427e-112
2.19556e-113
1.93458e-114
3.43531e-133
2.61134e-131
1.88428e-129
1.2686e-127
7.9223e-126
4.55751e-124
2.39547e-122
1.13903e-120
4.83989e-119
1.80956e-117
5.83413e-116
1.5781e-114
3.44305e-113
5.69907e-112
6.42238e-111
3.8626e-110
3.82346e-110
5.96249e-111
5.23787e-112
8.59244e-131
6.5621e-129
4.75705e-127
3.21765e-125
2.01881e-123
1.16684e-121
6.16204e-120
2.9439e-118
1.25687e-116
4.72175e-115
1.52964e-113
4.15751e-112
9.1145e-111
1.51593e-109
1.71646e-108
1.03698e-107
1.02681e-107
1.59706e-108
1.39868e-109
2.11837e-128
1.62542e-126
1.18381e-124
8.0448e-123
5.07121e-121
2.94495e-119
1.5626e-117
7.50094e-116
3.2178e-114
1.21466e-112
3.95396e-111
1.07988e-109
2.37889e-108
3.97574e-107
4.52318e-106
2.74499e-105
2.71897e-105
4.21774e-106
3.68241e-107
5.146e-126
3.96716e-124
2.90288e-122
1.982e-120
1.25531e-118
7.32444e-117
3.90494e-115
1.88347e-113
8.11874e-112
3.07949e-110
1.0073e-108
2.76444e-107
6.11954e-106
1.0277e-104
1.17484e-103
7.16221e-103
7.09659e-103
1.09788e-103
9.55535e-105
1.2313e-123
9.53741e-122
7.01165e-120
4.80999e-118
3.06091e-116
1.79451e-114
9.6131e-113
4.65903e-111
2.018e-109
7.6916e-108
2.52818e-106
6.97229e-105
1.55099e-103
2.61743e-102
3.00662e-101
1.84132e-100
1.82504e-100
2.81572e-101
2.44289e-102
2.90081e-121
2.25762e-119
1.6676e-117
1.14942e-115
7.34942e-114
4.32939e-112
2.33041e-110
1.13491e-108
4.93964e-107
1.89193e-105
6.24912e-104
1.73187e-102
3.87151e-101
6.56561e-100
7.57849e-99
4.6626e-98
4.62282e-98
7.11247e-99
6.15094e-100
6.72614e-119
5.25984e-117
3.90368e-115
2.70352e-113
1.73694e-111
1.02813e-109
5.56099e-108
2.72138e-106
1.19025e-104
4.58115e-103
1.52062e-101
4.23504e-100
9.51403e-99
1.62143e-97
1.88071e-96
1.16244e-95
1.15288e-95
1.7688e-96
1.52471e-97
1.53435e-116
1.20563e-114
8.99057e-113
6.25636e-111
4.03894e-109
2.40231e-107
1.3057e-105
6.42093e-104
2.82212e-102
1.09156e-100
3.64113e-99
1.01912e-97
2.30083e-96
3.94065e-95
4.59322e-94
2.85222e-93
2.82963e-93
4.32897e-94
3.71934e-95
3.44196e-114
2.71764e-112
2.03631e-110
1.42387e-108
9.23666e-107
5.52059e-105
3.01522e-103
1.49006e-101
6.58138e-100
2.5582e-98
8.5759e-97
2.41228e-95
5.47334e-94
9.42101e-93
1.10353e-91
6.88456e-91
6.83212e-91
1.04221e-91
8.92461e-93
7.58956e-112
6.02156e-110
4.53369e-108
3.18549e-106
2.0765e-104
1.24716e-102
6.84518e-101
3.39944e-99
1.50894e-97
5.89449e-96
1.98589e-94
5.61404e-93
1.2802e-91
2.21459e-90
2.60692e-89
1.63402e-88
1.62206e-88
2.46714e-89
2.10554e-90
1.64419e-109
1.31087e-107
9.91752e-106
7.00227e-104
4.58685e-102
2.76844e-100
1.52699e-98
7.62097e-97
3.39963e-95
1.33468e-93
4.51921e-92
1.284e-90
2.94274e-89
5.11626e-88
6.05268e-87
3.81177e-86
3.78498e-86
5.73982e-87
4.88185e-88
3.49784e-107
2.80241e-105
2.13052e-103
1.51162e-101
9.95058e-100
6.03546e-98
3.34552e-96
1.67802e-94
7.52295e-93
2.96832e-91
1.01015e-89
2.88457e-88
6.64457e-87
1.16108e-85
1.38047e-84
8.7351e-84
8.67622e-84
1.31176e-84
1.11183e-85
7.30354e-105
5.88031e-103
4.49237e-101
3.20304e-99
2.1189e-97
1.29159e-95
7.19511e-94
3.62695e-92
1.63424e-90
6.48078e-89
2.21667e-87
6.36213e-86
1.47298e-84
2.58701e-83
3.09135e-82
1.96544e-81
1.95275e-81
2.94335e-82
2.48602e-83
1.49595e-102
1.2104e-100
9.29257e-99
6.65832e-97
4.42654e-95
2.71168e-93
1.51819e-91
7.69152e-90
3.48319e-88
1.38833e-86
4.7728e-85
1.37687e-83
3.20412e-82
5.65624e-81
6.79316e-80
4.33977e-79
4.31296e-79
6.48071e-80
5.45436e-81
3.00401e-100
2.4427e-98
1.8846e-96
1.35706e-94
9.06697e-93
5.58226e-91
3.14109e-89
1.59941e-87
7.27994e-86
2.91645e-84
1.00776e-82
2.92217e-81
6.83524e-80
1.21284e-78
1.46404e-77
9.39818e-77
9.34271e-77
1.39943e-77
1.17358e-78
5.91056e-98
4.83018e-96
3.74511e-94
2.71025e-92
1.81989e-90
1.1261e-88
6.36855e-87
3.2593e-85
1.4911e-83
6.00424e-82
2.08542e-80
6.0783e-79
1.42914e-77
2.54897e-76
3.09268e-75
1.99495e-74
1.98371e-74
2.96189e-75
2.47483e-76
1.13873e-95
9.35263e-94
7.28783e-92
5.3005e-90
3.57714e-88
2.22466e-86
1.26454e-84
6.50478e-83
2.99117e-81
1.21067e-79
4.22676e-78
1.23836e-76
2.92682e-75
5.24735e-74
6.39942e-73
4.14817e-72
4.12591e-72
6.14044e-73
5.1118e-74
2.1468e-93
1.77211e-91
1.38781e-89
1.01445e-87
6.88095e-86
4.30111e-84
2.45735e-82
1.27056e-80
5.87273e-79
2.38931e-77
8.38514e-76
2.46953e-74
5.86719e-73
1.0574e-71
1.29623e-70
8.44366e-70
8.40055e-70
1.24611e-70
1.03349e-71
3.95758e-91
3.28344e-89
2.58436e-87
1.89868e-85
1.29442e-83
8.1325e-82
4.67023e-80
2.42719e-78
1.12771e-76
4.61202e-75
1.62703e-73
4.81698e-72
1.15046e-70
2.0843e-69
2.56837e-68
1.68132e-67
1.67316e-67
2.47363e-68
2.04379e-69
7.12879e-89
5.94462e-87
4.70267e-85
3.47256e-83
2.37952e-81
1.50269e-79
8.67407e-78
4.53147e-76
2.11638e-74
8.70077e-73
3.08562e-71
9.18352e-70
2.20495e-68
4.01585e-67
4.97443e-66
3.27258e-65
3.25753e-65
4.79966e-66
3.95042e-67
1.25373e-86
1.05083e-84
8.35527e-83
6.20133e-81
4.27124e-79
2.71127e-77
1.57318e-75
8.26145e-74
3.87868e-72
1.60299e-70
5.71488e-69
1.70991e-67
4.12733e-66
7.557e-65
9.41015e-64
6.22175e-63
6.19465e-63
9.09581e-64
7.45731e-65
2.15095e-84
1.81213e-82
1.44823e-80
1.08042e-78
7.47999e-77
4.77279e-75
2.78381e-73
1.46958e-71
6.93593e-70
2.88168e-68
1.03283e-66
3.10675e-65
7.53909e-64
1.38776e-62
1.73722e-61
1.15439e-60
1.14964e-60
1.68215e-61
1.37369e-62
3.59672e-82
3.04586e-80
2.44673e-78
1.83477e-76
1.27686e-74
8.18992e-73
4.802e-71
2.54836e-69
1.20912e-67
5.05031e-66
1.81977e-64
5.50327e-63
1.34265e-61
2.48478e-60
3.12704e-59
2.08845e-58
2.08035e-58
3.03316e-59
2.46706e-60
5.85627e-80
4.98517e-78
4.02529e-76
3.03421e-74
2.12262e-72
1.36862e-70
8.06701e-69
4.30376e-67
2.0529e-65
8.62055e-64
3.12293e-62
9.49521e-61
2.32911e-59
4.33366e-58
5.48302e-57
3.6806e-56
3.66716e-56
5.32747e-57
4.3156e-58
9.27543e-78
7.93704e-76
6.44213e-74
4.88138e-72
3.43277e-70
2.22507e-68
1.31847e-66
7.0716e-65
3.39124e-63
1.43172e-61
5.21468e-60
1.59412e-58
3.93152e-57
7.35496e-56
9.35573e-55
6.31243e-54
6.2908e-54
9.10547e-55
7.34569e-56
1.42749e-75
1.22794e-73
1.00187e-71
7.63135e-70
5.39501e-68
3.51552e-66
2.09426e-64
1.12927e-62
5.44468e-61
2.31109e-59
8.46334e-58
2.60134e-56
6.45071e-55
1.21337e-53
1.5518e-52
1.05242e-51
1.04904e-51
1.51276e-52
1.21531e-53
2.13224e-73
1.84386e-71
1.51231e-69
1.15803e-67
8.23019e-66
5.39162e-64
3.22911e-62
1.7506e-60
8.48608e-59
3.62167e-57
1.33353e-55
4.1213e-54
1.0276e-52
1.94354e-51
2.49917e-50
1.70371e-49
1.6986e-49
2.44019e-50
1.95207e-51
3.08731e-71
2.68394e-69
2.21297e-67
1.70354e-65
1.21718e-63
8.0166e-62
4.82714e-60
2.63113e-58
1.28239e-56
5.50293e-55
2.03736e-53
6.33124e-52
1.58736e-50
3.01883e-49
3.90312e-48
2.67468e-47
2.66722e-47
3.81697e-48
3.04034e-49
4.32735e-69
3.78206e-67
3.13495e-65
2.42617e-63
1.74281e-61
1.15404e-59
6.98664e-58
3.82896e-56
1.87643e-54
8.09634e-53
3.01409e-51
9.41847e-50
2.37453e-48
4.54095e-47
5.90347e-46
4.0667e-45
4.05616e-45
5.78196e-46
4.58545e-47
5.86315e-67
5.15184e-65
4.29317e-63
3.34036e-61
2.41246e-59
1.60612e-57
9.77662e-56
5.38735e-54
2.65468e-52
1.15177e-50
4.31161e-49
1.35482e-47
3.43478e-46
6.60527e-45
8.63478e-44
5.97963e-43
5.96529e-43
8.46963e-44
6.68724e-45
7.66701e-65
6.77321e-63
5.6746e-61
4.43904e-59
3.22333e-57
2.15768e-55
1.3206e-53
7.31717e-52
3.62559e-50
1.58176e-48
5.95438e-47
1.88152e-45
4.79693e-44
9.27663e-43
1.21945e-41
8.48966e-41
8.47089e-41
1.19786e-41
9.4153e-43
9.65974e-63
8.57993e-61
7.22707e-59
5.68416e-57
4.14996e-55
2.7932e-53
1.71899e-51
9.57735e-50
4.77192e-48
2.09353e-46
7.92517e-45
2.51839e-43
6.45697e-42
1.25576e-40
1.66e-39
1.16185e-38
1.15949e-38
1.6329e-39
1.27763e-40
1.17042e-60
1.04526e-58
8.85221e-57
7.00033e-55
5.13892e-53
3.4779e-51
2.15223e-49
1.2058e-47
6.04154e-46
2.66545e-44
1.01472e-42
3.24281e-41
8.36163e-40
1.63543e-38
2.17409e-37
1.52985e-36
1.52702e-36
2.1415e-37
1.66782e-38
1.36104e-58
1.22216e-56
1.04068e-54
8.27488e-53
6.10807e-51
4.15671e-49
2.58664e-47
1.4573e-45
7.34276e-44
3.25787e-42
1.24731e-40
4.00883e-39
1.0396e-37
2.04496e-36
2.73394e-35
1.93422e-34
1.93096e-34
2.6965e-35
2.09019e-36
1.51559e-56
1.36844e-54
1.17164e-52
9.36755e-51
6.95296e-49
4.75806e-47
2.97744e-45
1.68692e-43
8.54791e-42
3.81415e-40
1.46864e-38
4.74728e-37
1.23819e-35
2.44962e-34
3.29363e-33
2.34289e-32
2.33931e-32
3.25264e-33
2.50925e-34
1.61215e-54
1.46369e-52
1.2601e-50
1.01307e-48
7.56133e-47
5.2034e-45
3.27447e-43
1.86572e-41
9.50774e-40
4.26673e-38
1.65235e-36
5.37196e-35
1.40923e-33
2.80414e-32
3.79196e-31
2.71216e-30
2.70844e-30
3.74935e-31
2.87842e-32
1.63362e-52
1.49144e-50
1.29112e-48
1.04379e-46
7.83433e-45
5.42166e-43
3.43116e-41
1.96614e-39
1.00769e-37
4.54816e-36
1.77152e-34
5.79286e-33
1.5285e-31
3.05918e-30
4.16074e-29
2.99235e-28
2.98868e-28
4.11881e-29
3.14648e-30
1.57214e-50
1.44336e-48
1.25646e-46
1.02147e-44
7.71003e-43
5.36588e-41
3.41522e-39
1.96822e-37
1.01456e-35
4.60571e-34
1.80438e-32
5.93476e-31
1.57511e-29
3.17095e-28
4.33783e-27
3.13703e-26
3.13362e-26
4.29891e-27
3.26765e-28
1.432e-48
1.32211e-46
1.15737e-44
9.46216e-43
7.18247e-41
5.02722e-39
3.21801e-37
1.86526e-35
9.6706e-34
4.41563e-32
1.74003e-30
5.75674e-29
1.53687e-27
3.11221e-26
4.28236e-25
3.11423e-24
3.11125e-24
4.24847e-25
3.21289e-26
1.22978e-46
1.14183e-44
1.00519e-42
8.26464e-41
6.30924e-39
4.44134e-37
2.85937e-35
1.66698e-33
8.69298e-32
3.9925e-30
1.58255e-28
5.26668e-27
1.41437e-25
2.88113e-24
3.98773e-23
2.91627e-22
2.91385e-22
3.96017e-23
2.97939e-24
9.91355e-45
9.25701e-43
8.19544e-41
6.77667e-39
5.20299e-37
3.68372e-35
2.38536e-33
1.39874e-31
7.33693e-30
3.38954e-28
1.3515e-26
4.5245e-25
1.22231e-23
2.50474e-22
3.4873e-21
2.56474e-20
2.5629e-20
3.4665e-21
2.59429e-22
7.46367e-43
7.00929e-41
6.24086e-39
5.19005e-37
4.00779e-35
2.85397e-33
1.85884e-31
1.09639e-29
5.78487e-28
2.68835e-26
1.0783e-24
3.63148e-23
9.86941e-22
2.03457e-20
2.84956e-19
2.10765e-18
2.10637e-18
2.83509e-19
2.11042e-20
5.21734e-41
4.92792e-39
4.41283e-37
3.69098e-35
2.86672e-33
2.05331e-31
1.3452e-29
7.9811e-28
4.23603e-26
1.9803e-24
7.99061e-23
2.70725e-21
7.40199e-20
1.53513e-18
2.16294e-17
1.60897e-16
1.60815e-16
2.15375e-17
1.59453e-18
3.363e-39
3.19483e-37
2.87739e-35
2.42066e-33
1.89105e-31
1.36242e-29
8.97833e-28
5.35847e-26
2.861e-24
1.34551e-22
5.4619e-21
1.86171e-19
5.12107e-18
1.06853e-16
1.5146e-15
1.13318e-14
1.13271e-14
1.50932e-15
1.11126e-16
1.98255e-37
1.89437e-35
1.71604e-33
1.45206e-31
1.14102e-29
8.26907e-28
5.48162e-26
3.29106e-24
1.76771e-22
8.36353e-21
3.41562e-19
1.17132e-17
3.24166e-16
6.80516e-15
9.70456e-14
7.30285e-13
7.30043e-13
9.67754e-14
7.08526e-15
1.05836e-35
1.0172e-33
9.26813e-32
7.88842e-30
6.23521e-28
4.5455e-26
3.03121e-24
1.83079e-22
9.89294e-21
4.70901e-19
1.93486e-17
6.6758e-16
1.8589e-14
3.92635e-13
5.63337e-12
4.26399e-11
4.26289e-11
5.62125e-12
4.09202e-13
5.05398e-34
4.88602e-32
4.47792e-30
3.83377e-28
3.04827e-26
2.23545e-24
1.49967e-22
9.11237e-21
4.95385e-19
2.3724e-17
9.80753e-16
3.40471e-14
9.53909e-13
2.02729e-11
2.92654e-10
2.22817e-09
2.22774e-09
2.92188e-10
2.11465e-11
2.12569e-32
2.06719e-30
1.90569e-28
1.64122e-26
1.31272e-24
9.68456e-23
6.53612e-21
3.99558e-19
2.1854e-17
1.053e-15
4.37996e-14
1.52992e-12
4.31307e-11
9.22333e-10
1.33967e-08
1.02602e-07
1.02588e-07
1.33819e-08
9.62771e-10
7.71708e-31
7.54926e-29
7.00064e-27
6.06498e-25
4.8801e-23
3.62194e-21
2.45926e-19
1.51252e-17
8.32349e-16
4.03526e-14
1.68886e-12
5.9359e-11
1.68386e-09
3.62338e-08
5.29557e-07
4.07985e-06
4.07948e-06
5.29188e-07
3.78442e-08
2.3527e-29
2.31525e-27
2.15975e-25
1.88227e-23
1.52364e-21
1.13767e-19
7.77161e-18
4.80902e-16
2.66271e-14
1.29888e-12
5.46995e-11
1.93456e-09
5.52228e-08
1.19576e-06
1.7585e-05
0.00013629
0.000136283
1.75786e-05
1.24944e-06
5.7904e-28
5.73229e-26
5.37912e-24
4.7161e-22
3.84055e-20
2.88502e-18
1.98283e-16
1.23449e-14
6.87743e-13
3.37565e-11
1.43045e-09
5.0908e-08
1.46233e-06
3.18638e-05
0.000471526
0.00367641
0.00367632
0.00047147
3.33034e-05
1.08198e-26
1.07751e-24
1.01714e-22
8.97101e-21
7.34952e-19
5.5544e-17
3.84071e-15
2.40585e-13
1.34858e-11
6.66028e-10
2.83993e-08
1.01703e-06
2.9398e-05
0.000644608
0.00959872
0.0752889
0.0752884
0.00959914
0.00067381
1.37703e-25
1.37943e-23
1.3098e-21
1.16206e-19
9.57692e-18
7.28112e-16
5.06504e-14
3.19202e-12
1.80018e-10
8.94519e-09
3.83776e-07
1.3829e-05
0.000402226
0.00887459
0.132969
1.04916
1.04917
0.132985
0.0092762
9.35201e-25
9.42033e-23
8.99433e-21
8.02431e-19
6.65018e-17
5.08454e-15
3.55712e-13
2.25455e-11
1.27881e-09
6.39129e-08
2.75805e-06
9.99663e-05
0.00292472
0.0649109
0.978274
7.76236
7.76237
0.978376
0.067835
1.06114e-24
1.06837e-22
1.01956e-20
9.0915e-19
7.5308e-17
5.75487e-15
4.02397e-13
2.54907e-11
1.44508e-09
7.21829e-08
3.11316e-06
0.000112773
0.00329747
0.0731405
1.10165
8.73624
8.73624
1.10176
0.0764379
1.07121e-24
1.07843e-22
1.02908e-20
9.17561e-19
7.59984e-17
5.80714e-15
4.06017e-13
2.57179e-11
1.45783e-09
7.28134e-08
3.14008e-06
0.000113738
0.00332539
0.0737532
1.11078
8.80786
8.80786
1.11089
0.0770786
1.07176e-24
1.07897e-22
1.02958e-20
9.18006e-19
7.60347e-17
5.80988e-15
4.06206e-13
2.57297e-11
1.45849e-09
7.28458e-08
3.14145e-06
0.000113787
0.00332684
0.0737916
1.11246
8.81263
8.81263
1.11257
0.0771185
1.07178e-24
1.07899e-22
1.0296e-20
9.18024e-19
7.60362e-17
5.80999e-15
4.06213e-13
2.57301e-11
1.45851e-09
7.28472e-08
3.14154e-06
0.000113793
0.00332738
0.0738336
1.11444
8.81477
8.81477
1.11455
0.077161
1.07178e-24
1.07899e-22
1.0296e-20
9.18025e-19
7.60363e-17
5.81e-15
4.06215e-13
2.57304e-11
1.45854e-09
7.285e-08
3.14182e-06
0.000113817
0.00332899
0.0739113
1.11645
8.81686
8.81686
1.11657
0.0772403
1.07178e-24
1.079e-22
1.02961e-20
9.18034e-19
7.60374e-17
5.81014e-15
4.06231e-13
2.5732e-11
1.4587e-09
7.28639e-08
3.14286e-06
0.000113882
0.00333214
0.0740176
1.11835
8.81886
8.81886
1.11847
0.0773498
1.07183e-24
1.07906e-22
1.02969e-20
9.18124e-19
7.60473e-17
5.81116e-15
4.06328e-13
2.57405e-11
1.45937e-09
7.29108e-08
3.14566e-06
0.000114019
0.00333735
0.0741534
1.12022
8.82085
8.82086
1.12033
0.0774908
1.07229e-24
1.07959e-22
1.03027e-20
9.18721e-19
7.61049e-17
5.81632e-15
4.06753e-13
2.57722e-11
1.46148e-09
7.30338e-08
3.15176e-06
0.000114266
0.00334501
0.0743167
1.12205
8.82284
8.82285
1.12216
0.0776618
1.07487e-24
1.08231e-22
1.033e-20
9.21287e-19
7.63283e-17
5.83422e-15
4.0806e-13
2.58582e-11
1.4665e-09
7.3288e-08
3.16265e-06
0.000114645
0.00335509
0.0744997
1.1238
8.82477
8.82477
1.12391
0.0778548
1.0817e-24
1.08908e-22
1.03934e-20
9.26808e-19
7.67728e-17
5.86702e-15
4.10257e-13
2.59902e-11
1.4735e-09
7.36094e-08
3.17507e-06
0.000115034
0.00336435
0.0746497
1.12509
8.82619
8.8262
1.1252
0.0780141
1.08271e-24
1.09008e-22
1.04026e-20
9.27606e-19
7.68365e-17
5.87167e-15
4.10566e-13
2.60085e-11
1.47446e-09
7.3653e-08
3.17673e-06
0.000115085
0.00336555
0.074669
1.12525
8.82637
8.82638
1.12536
0.0780346
1.08279e-24
1.09015e-22
1.04033e-20
9.27666e-19
7.68412e-17
5.87201e-15
4.10588e-13
2.60098e-11
1.47453e-09
7.36561e-08
3.17685e-06
0.000115089
0.00336563
0.0746703
1.12526
8.82639
8.82639
1.12537
0.078036
1.08279e-24
1.09016e-22
1.04034e-20
9.27669e-19
7.68414e-17
5.87203e-15
4.10589e-13
2.60099e-11
1.47453e-09
7.36563e-08
3.17686e-06
0.000115089
0.00336564
0.0746703
1.12526
8.82639
8.82639
1.12537
0.078036
1.08279e-24
1.09016e-22
1.04034e-20
9.27669e-19
7.68414e-17
5.87203e-15
4.10589e-13
2.60099e-11
1.47453e-09
7.36563e-08
3.17686e-06
0.000115089
0.00336564
0.0746703
1.12526
8.82639
8.82639
1.12537
0.078036
1.0828e-24
1.09016e-22
1.04034e-20
9.27672e-19
7.68416e-17
5.87204e-15
4.1059e-13
2.60099e-11
1.47453e-09
7.36563e-08
3.17686e-06
0.000115089
0.00336564
0.0746703
1.12526
8.82638
8.82639
1.12537
0.078036
1.08298e-24
1.09032e-22
1.04047e-20
9.27764e-19
7.68477e-17
5.8724e-15
4.10608e-13
2.60107e-11
1.47456e-09
7.36569e-08
3.17686e-06
0.000115088
0.0033656
0.0746693
1.12524
8.82625
8.82625
1.12536
0.0780348
1.08765e-24
1.0943e-22
1.04364e-20
9.30083e-19
7.70014e-17
5.88149e-15
4.11079e-13
2.60313e-11
1.47528e-09
7.36734e-08
3.17689e-06
0.00011507
0.00336465
0.0746422
1.12479
8.82271
8.82272
1.1249
0.0780028
1.17477e-24
1.1691e-22
1.10367e-20
9.74251e-19
7.99479e-17
6.05713e-15
4.20238e-13
2.64356e-11
1.48946e-09
7.40079e-08
3.17788e-06
0.000114718
0.00334587
0.0741017
1.11575
8.75118
8.75118
1.11578
0.0773629
2.26881e-24
2.11441e-22
1.86718e-20
1.53969e-18
1.17924e-16
8.33665e-15
5.40007e-13
3.17663e-11
1.67847e-09
7.8549e-08
3.19569e-06
0.000110148
0.00309678
0.0668538
0.993472
7.7784
7.77828
0.992523
0.0687691
9.23696e-24
8.17331e-22
6.79192e-20
5.21054e-18
3.66116e-16
2.33379e-14
1.33403e-12
6.73996e-11
2.95504e-09
1.09773e-07
3.34628e-06
8.01335e-05
0.00142212
0.0175867
0.155726
1.07277
1.07185
0.14798
0.0102689
1.03244e-23
9.11378e-22
7.55215e-20
5.77399e-18
4.03986e-16
2.56125e-14
1.45362e-12
7.27251e-11
3.14398e-09
1.14316e-07
3.36422e-06
7.55687e-05
0.0011731
0.0103392
0.0334504
0.0999861
0.0989581
0.0247205
0.00167475
1.04105e-23
9.18776e-22
7.61162e-20
5.81781e-18
4.06914e-16
2.57873e-14
1.46274e-12
7.31284e-11
3.15814e-09
1.14651e-07
3.36524e-06
7.52171e-05
0.00115434
0.00979868
0.0243909
0.028441
0.0274041
0.0155879
0.00103455
1.0415e-23
9.19167e-22
7.61475e-20
5.8201e-18
4.07066e-16
2.57963e-14
1.46321e-12
7.3149e-11
3.15886e-09
1.14667e-07
3.36527e-06
7.51985e-05
0.00115331
0.00975849
0.022329
0.0232799
0.0222425
0.0135224
0.000989316
1.04152e-23
9.19182e-22
7.61487e-20
5.82019e-18
4.07072e-16
2.57967e-14
1.46323e-12
7.31497e-11
3.15888e-09
1.14667e-07
3.36522e-06
7.51912e-05
0.00115262
0.00970992
0.0203542
0.021143
0.0201056
0.0115474
0.000939915
1.04152e-23
9.19182e-22
7.61487e-20
5.82019e-18
4.07072e-16
2.57967e-14
1.46323e-12
7.31494e-11
3.15884e-09
1.14663e-07
3.36484e-06
7.51611e-05
0.00115073
0.00962556
0.0183466
0.0190496
0.0180122
0.00953982
0.000853652
1.0415e-23
9.19163e-22
7.61471e-20
5.82007e-18
4.07062e-16
2.5796e-14
1.46318e-12
7.31458e-11
3.15857e-09
1.14643e-07
3.36349e-06
7.50834e-05
0.00114718
0.00951303
0.0164556
0.0170496
0.0160122
0.00764881
0.000737732
1.04097e-23
9.187e-22
7.6109e-20
5.81716e-18
4.06857e-16
2.57827e-14
1.46238e-12
7.31019e-11
3.15633e-09
1.14536e-07
3.35876e-06
7.48963e-05
0.00114106
0.00936798
0.0145934
0.0150518
0.0140148
0.00579001
0.000590551
1.03117e-23
9.10125e-22
7.54043e-20
5.76367e-18
4.03136e-16
2.55476e-14
1.44903e-12
7.24298e-11
3.12678e-09
1.13424e-07
3.32383e-06
7.40098e-05
0.00112371
0.00912742
0.0126889
0.0129875
0.011959
0.00395686
0.000413381
9.08751e-24
8.02538e-22
6.65275e-20
5.08788e-18
3.5605e-16
2.25743e-14
1.28093e-12
6.40493e-11
2.76561e-09
1.00325e-07
2.93895e-06
6.53689e-05
0.000989647
0.00796261
0.00988557
0.0100121
0.00909877
0.0021266
0.000211737
1.31579e-24
1.15643e-22
9.53993e-21
7.25994e-19
5.05496e-17
3.18852e-15
1.7998e-13
8.95135e-12
3.84408e-10
1.38671e-08
4.0391e-07
8.93128e-06
0.000134393
0.00107423
0.00131704
0.00133217
0.00120808
0.000268342
2.65148e-05
1.01485e-25
8.87416e-24
7.28347e-22
5.51404e-20
3.81906e-18
2.396e-16
1.34505e-14
6.65234e-13
2.84056e-11
1.01876e-09
2.94987e-08
6.4835e-07
9.69612e-06
7.70178e-05
9.38428e-05
9.48568e-05
8.59041e-05
1.85893e-05
1.83087e-06
5.32586e-27
4.63352e-25
3.78358e-23
2.84954e-21
1.96319e-19
1.22505e-17
6.83948e-16
3.36383e-14
1.42821e-12
5.0927e-11
1.46594e-09
3.20273e-08
4.76064e-07
3.75844e-06
4.55967e-06
4.60668e-06
4.16717e-06
8.85119e-07
8.70126e-08
2.12026e-28
1.83536e-26
1.49112e-24
1.11725e-22
7.65702e-21
4.75263e-19
2.63904e-17
1.29079e-15
5.44973e-14
1.93217e-12
5.52952e-11
1.20094e-09
1.77446e-08
1.39259e-07
1.68359e-07
1.70026e-07
1.53647e-07
3.21447e-08
3.15605e-09
6.80919e-30
5.86497e-28
4.74117e-26
3.53436e-24
2.40976e-22
1.48786e-20
8.21767e-19
3.99755e-17
1.67844e-15
5.91737e-14
1.68377e-12
3.63572e-11
5.34049e-10
4.16683e-09
5.02261e-09
5.07054e-09
4.5777e-09
9.45275e-10
9.27252e-11
1.8351e-31
1.57289e-29
1.26524e-27
9.38471e-26
6.36605e-24
3.91026e-22
2.14833e-20
1.03948e-18
4.34069e-17
1.52185e-15
4.30605e-14
9.24493e-13
1.35017e-11
1.04746e-10
1.25928e-10
1.27089e-10
1.14632e-10
2.33972e-11
2.29356e-12
4.26607e-33
3.63883e-31
2.91291e-29
2.14994e-27
1.45109e-25
8.8677e-24
4.84675e-22
2.33278e-20
9.68913e-19
3.37855e-17
9.5067e-16
2.02962e-14
2.94738e-13
2.27385e-12
2.72727e-12
2.75161e-12
2.47975e-12
5.00827e-13
4.90702e-14
8.72947e-35
7.41052e-33
5.90382e-31
4.3363e-29
2.91231e-27
1.7708e-25
9.62921e-24
4.6106e-22
1.90492e-20
6.60681e-19
1.84895e-17
3.92567e-16
5.66918e-15
4.34981e-14
5.2061e-14
5.25114e-14
4.72836e-14
9.45817e-15
9.26369e-16
1.5969e-36
1.34926e-34
1.06987e-32
7.8205e-31
5.22681e-29
3.16243e-27
1.71103e-25
8.15086e-24
3.35017e-22
1.15583e-20
3.21738e-19
6.79416e-18
9.75819e-17
7.44721e-16
8.89593e-16
8.97062e-16
8.07102e-16
1.60022e-16
1.56697e-17
2.60341e-38
2.1897e-36
1.72838e-34
1.25756e-32
8.3654e-31
5.03723e-29
2.71216e-27
1.28563e-25
5.25773e-24
1.80471e-22
4.9977e-21
1.04985e-19
1.49992e-18
1.1388e-17
1.35794e-17
1.36902e-17
1.23078e-17
2.42068e-18
2.37012e-19
)
;

boundaryField
{
    top
    {
        type            zeroGradient;
    }
    left
    {
        type            fixedValue;
        value           uniform 0;
    }
    bottom
    {
        type            zeroGradient;
    }
    right
    {
        type            zeroGradient;
    }
    frontAndBack
    {
        type            empty;
    }
}


// ************************************************************************* //
