/*--------------------------------*- C++ -*----------------------------------*\
| =========                 |                                                 |
| \\      /  F ield         | OpenFOAM: The Open Source CFD Toolbox           |
|  \\    /   O peration     | Version:  v1806                                 |
|   \\  /    A nd           | Web:      www.OpenFOAM.com                      |
|    \\/     M anipulation  |                                                 |
\*---------------------------------------------------------------------------*/
FoamFile
{
    version     2.0;
    format      ascii;
    class       volScalarField;
    location    "0.015";
    object      T;
}
// * * * * * * * * * * * * * * * * * * * * * * * * * * * * * * * * * * * * * //

dimensions      [0 0 0 1 0 0 0];


internalField   nonuniform List<scalar> 
1881
(
-1.61891e-57
2.85263e-58
2.83828e-55
2.91704e-53
2.64696e-51
2.14409e-49
1.54458e-47
9.82026e-46
5.44731e-44
2.59412e-42
1.03717e-40
3.37339e-39
8.51913e-38
1.55133e-36
1.78509e-35
9.72405e-35
9.61449e-35
1.66167e-35
1.47979e-36
7.76948e-59
-1.8205e-56
-1.56602e-54
-1.0822e-52
-6.1687e-51
-2.508e-49
-2.00882e-48
8.39132e-46
1.00079e-43
7.44718e-42
4.16839e-40
1.81277e-38
6.03895e-37
1.46726e-35
2.34438e-34
1.91752e-33
1.92009e-33
2.37514e-34
1.58321e-35
1.07988e-55
-2.82896e-57
-1.53107e-53
-1.42726e-51
-1.18927e-49
-8.92098e-48
-5.97382e-46
-3.52973e-44
-1.81166e-42
-7.90534e-41
-2.84405e-39
-8.04785e-38
-1.65108e-36
-2.05236e-35
-6.63661e-35
1.29418e-33
1.34066e-33
-1.35392e-35
-1.50342e-35
4.72707e-55
7.59581e-55
3.66137e-54
-1.14671e-51
-2.07585e-49
-2.39067e-47
-2.18305e-45
-1.66782e-43
-1.08161e-41
-5.94272e-40
-2.7314e-38
-1.02613e-36
-3.0357e-35
-6.65434e-34
-9.67918e-33
-7.25504e-32
-7.24868e-32
-9.61255e-33
-6.91979e-34
-5.19982e-54
-7.42515e-55
6.11665e-52
5.18084e-50
3.89361e-48
2.60881e-46
1.53141e-44
7.66234e-43
3.1117e-41
9.15375e-40
1.15526e-38
-5.83126e-37
-4.53682e-35
-1.598e-33
-3.2194e-32
-3.10501e-31
-3.12015e-31
-3.39346e-32
-1.89675e-33
-5.40322e-53
-5.1184e-53
2.1745e-51
2.41135e-49
2.27213e-47
1.90227e-45
1.414e-43
9.27751e-42
5.31975e-40
2.62741e-38
1.09523e-36
3.74422e-35
1.00651e-33
1.99166e-32
2.58226e-31
1.69465e-30
1.68713e-30
2.4982e-31
1.99084e-32
1.02987e-52
-3.31882e-54
-1.45462e-50
-1.04112e-48
-6.1383e-47
-2.72611e-45
-5.19276e-44
5.38991e-42
7.81166e-40
6.14634e-38
3.54242e-36
1.57206e-34
5.3249e-33
1.31369e-31
2.13083e-30
1.76941e-29
1.77224e-29
2.1642e-30
1.4225e-31
3.88923e-51
3.79387e-51
-1.32518e-49
-1.27882e-47
-1.06631e-45
-8.02191e-44
-5.40288e-42
-3.22163e-40
-1.67577e-38
-7.45481e-37
-2.75934e-35
-8.16362e-34
-1.81138e-32
-2.68407e-31
-2.00697e-30
-4.32122e-31
-7.45908e-32
-1.60138e-30
-2.3223e-31
1.02137e-50
1.22891e-50
2.24936e-50
-1.0191e-47
-1.74291e-45
-1.97609e-43
-1.7942e-41
-1.36898e-39
-8.8911e-38
-4.90261e-36
-2.26576e-34
-8.57526e-33
-2.56101e-31
-5.6804e-30
-8.38313e-29
-6.39276e-28
-6.39038e-28
-8.3602e-29
-5.94176e-30
-1.95383e-49
-2.14727e-49
4.57628e-48
4.12025e-46
3.11044e-44
2.0993e-42
1.24796e-40
6.38004e-39
2.69572e-37
8.68002e-36
1.6432e-34
-1.63173e-33
-2.64173e-31
-1.04405e-29
-2.21222e-28
-2.19857e-27
-2.20963e-27
-2.33912e-28
-1.25254e-29
-1.43956e-48
-1.6248e-48
1.57257e-47
1.86627e-45
1.73764e-43
1.44352e-41
1.06862e-39
7.00367e-38
4.02217e-36
1.99481e-34
8.37316e-33
2.89159e-31
7.88325e-30
1.59039e-28
2.11799e-27
1.44241e-26
1.43797e-26
2.06848e-27
1.61014e-28
5.52231e-48
7.0779e-48
-8.75334e-47
-6.99109e-45
-4.11921e-43
-1.82477e-41
-3.44966e-40
3.63687e-38
5.25836e-36
4.14226e-34
2.39351e-32
1.06613e-30
3.62855e-29
9.00521e-28
1.47112e-26
1.23161e-25
1.23364e-25
1.49488e-26
9.74755e-28
1.06408e-46
1.26935e-46
-7.76036e-46
-8.64627e-44
-7.18072e-42
-5.38484e-40
-3.62432e-38
-2.1654e-36
-1.13202e-34
-5.08049e-33
-1.90723e-31
-5.77065e-30
-1.32958e-28
-2.11802e-27
-1.91539e-26
-5.42627e-26
-5.22327e-26
-1.68531e-26
-1.9439e-27
1.24535e-46
9.59697e-47
-2.46217e-46
-8.91568e-44
-1.26252e-41
-1.34016e-39
-1.17717e-37
-8.81194e-36
-5.65763e-34
-3.09897e-32
-1.4277e-30
-5.40175e-29
-1.61678e-27
-3.60263e-26
-5.35439e-25
-4.12164e-24
-4.12114e-24
-5.35092e-25
-3.77778e-26
-5.42534e-45
-6.85777e-45
1.91111e-44
2.36929e-42
1.78733e-40
1.20269e-38
7.14176e-37
3.65658e-35
1.55386e-33
5.08043e-32
1.01762e-30
-5.50049e-30
-1.37274e-27
-5.62241e-26
-1.20967e-24
-1.21417e-23
-1.21994e-23
-1.27575e-24
-6.70151e-26
-2.88307e-44
-3.2941e-44
7.15453e-44
1.11554e-41
1.01752e-39
8.3144e-38
6.08231e-36
3.95337e-34
2.25835e-32
1.11704e-30
4.688e-29
1.62292e-27
4.44821e-26
9.05337e-25
1.22175e-23
8.47809e-23
8.45819e-23
1.19958e-23
9.23249e-25
1.74757e-43
2.39319e-43
-1.04483e-43
-3.03195e-41
-1.70355e-39
-6.45386e-38
6.4269e-38
2.88259e-34
3.18687e-32
2.32616e-30
1.29723e-28
5.6657e-27
1.90623e-25
4.70009e-24
7.65518e-23
6.40688e-22
6.4165e-22
7.76749e-23
5.06643e-24
2.21377e-42
2.69451e-42
-1.38352e-42
-4.27159e-40
-3.53002e-38
-2.62189e-36
-1.75137e-34
-1.04051e-32
-5.41943e-31
-2.42815e-29
-9.12173e-28
-2.77059e-26
-6.43965e-25
-1.04471e-23
-9.86933e-23
-3.33682e-22
-3.25289e-22
-8.91791e-23
-9.81544e-24
-2.1845e-43
-1.6843e-42
-8.44365e-42
-6.53995e-40
-7.51332e-38
-7.26941e-36
-6.0505e-34
-4.37327e-32
-2.7406e-30
-1.47546e-28
-6.71394e-27
-2.51839e-25
-7.49573e-24
-1.66536e-22
-2.47396e-21
-1.90788e-20
-1.90776e-20
-2.47345e-21
-1.74597e-22
-1.12589e-40
-1.42552e-40
-7.00603e-41
9.28835e-39
7.0351e-37
4.65553e-35
2.71011e-33
1.35187e-31
5.51734e-30
1.66174e-28
2.42577e-27
-8.2016e-26
-7.23382e-24
-2.63016e-22
-5.40454e-21
-5.30156e-20
-5.32251e-20
-5.64466e-21
-3.04476e-22
-4.29274e-40
-4.73372e-40
-1.94413e-43
4.9568e-38
4.4149e-36
3.52273e-34
2.5285e-32
1.61854e-30
9.13296e-29
4.47347e-27
1.8633e-25
6.41504e-24
1.75212e-22
3.561e-21
4.80998e-20
3.34986e-19
3.34309e-19
4.73437e-20
3.64329e-21
3.78718e-39
5.04265e-39
5.67883e-39
-6.42012e-38
-3.04199e-36
-2.68759e-36
1.56256e-32
1.95799e-30
1.63245e-28
1.05981e-26
5.53971e-25
2.32245e-23
7.59936e-22
1.83725e-20
2.95076e-19
2.44601e-18
2.44894e-18
2.98493e-19
1.96641e-20
3.49476e-38
4.17342e-38
3.33618e-38
-1.44612e-36
-1.20925e-34
-8.83432e-33
-5.8092e-31
-3.40022e-29
-1.74524e-27
-7.70269e-26
-2.84635e-24
-8.47658e-23
-1.91827e-21
-2.98002e-20
-2.56116e-19
-5.68365e-19
-5.43716e-19
-2.28139e-19
-2.79215e-20
-4.22133e-38
-7.34482e-38
-1.521e-37
-3.52465e-36
-3.34957e-34
-2.96315e-32
-2.32211e-30
-1.60669e-28
-9.74073e-27
-5.11023e-25
-2.27798e-23
-8.40441e-22
-2.46839e-20
-5.42625e-19
-7.99497e-18
-6.12941e-17
-6.1285e-17
-7.98683e-18
-5.67649e-19
-1.74884e-36
-2.1632e-36
-2.41621e-36
2.08706e-35
1.72458e-33
1.09306e-31
5.98153e-30
2.70766e-28
9.13607e-27
1.45848e-25
-6.93561e-24
-7.18211e-22
-3.41227e-20
-1.03209e-18
-1.938e-17
-1.80446e-16
-1.80955e-16
-1.99637e-17
-1.14995e-18
-4.71583e-36
-4.89511e-36
-3.11664e-36
1.53332e-34
1.34207e-32
1.04043e-30
7.28417e-29
4.5623e-27
2.5251e-25
1.21549e-23
4.98279e-22
1.69021e-20
4.55149e-19
9.12257e-18
1.21487e-16
8.33708e-16
8.31995e-16
1.19568e-16
9.33187e-18
5.84635e-35
7.5189e-35
9.7536e-35
1.17426e-34
6.4841e-33
1.01765e-30
1.06928e-28
8.91506e-27
6.18409e-25
3.60576e-23
1.75514e-21
6.9926e-20
2.20215e-18
5.16839e-17
8.10913e-16
6.60152e-15
6.60675e-15
8.17068e-16
5.48528e-17
4.18162e-34
4.85817e-34
5.26096e-34
-2.76078e-33
-2.6592e-31
-1.89428e-29
-1.21094e-27
-6.8759e-26
-3.41052e-24
-1.44486e-22
-5.06402e-21
-1.39808e-19
-2.78935e-18
-3.29642e-17
-6.7632e-17
2.66642e-15
2.71546e-15
-1.1807e-17
-2.80386e-17
-8.90169e-34
-1.31733e-33
-2.07065e-33
-1.38611e-32
-1.01041e-30
-8.29467e-29
-6.14815e-27
-4.06785e-25
-2.37665e-23
-1.20851e-21
-5.24443e-20
-1.89009e-18
-5.43752e-17
-1.17344e-15
-1.70048e-14
-1.2848e-13
-1.28435e-13
-1.69575e-14
-1.22329e-15
-2.02884e-32
-2.4447e-32
-2.93818e-32
-4.10642e-33
2.00485e-30
1.09554e-28
4.36554e-27
6.86667e-26
-7.71114e-24
-9.49887e-22
-6.44348e-20
-3.14351e-18
-1.1415e-16
-2.98787e-15
-5.12112e-14
-4.48397e-13
-4.4916e-13
-5.20908e-14
-3.22962e-15
-3.84906e-32
-3.68275e-32
-2.77423e-32
2.96561e-31
2.60765e-29
1.95528e-27
1.32722e-25
8.07296e-24
4.34346e-22
2.03303e-20
8.10004e-19
2.66655e-17
6.94966e-16
1.34187e-14
1.70864e-13
1.10929e-12
1.1063e-12
1.67489e-13
1.36611e-14
6.49623e-31
8.10379e-31
1.03152e-30
1.72981e-30
4.77077e-29
4.2417e-27
3.42729e-25
2.43722e-23
1.5161e-21
8.15755e-20
3.7311e-18
1.41397e-16
4.27294e-15
9.68626e-14
1.47553e-12
1.17192e-11
1.17235e-11
1.48066e-12
1.01977e-13
3.79759e-30
4.29441e-30
4.79439e-30
1.11274e-30
-3.13538e-28
-2.14974e-26
-1.29004e-24
-6.76848e-23
-3.02031e-21
-1.0941e-19
-2.91943e-18
-4.07922e-17
6.81496e-16
5.56676e-14
1.42456e-12
1.5568e-11
1.56285e-11
1.49381e-12
6.6119e-14
-1.05378e-29
-1.45355e-29
-2.05361e-29
-4.89921e-29
-1.85201e-27
-1.41456e-25
-9.98517e-24
-6.32912e-22
-3.55793e-20
-1.74653e-18
-7.33511e-17
-2.5631e-15
-7.15794e-14
-1.50054e-12
-2.11278e-11
-1.55187e-10
-1.55082e-10
-2.10113e-11
-1.55721e-12
-1.74953e-28
-2.05826e-28
-2.44358e-28
-2.85524e-28
-8.12209e-28
-9.10368e-26
-1.00155e-23
-8.57447e-22
-6.05973e-20
-3.58868e-18
-1.77234e-16
-7.16388e-15
-2.29016e-13
-5.46113e-12
-8.71557e-11
-7.22257e-10
-7.22859e-10
-8.78556e-11
-5.79312e-12
-2.44257e-28
-2.139e-28
-1.47189e-28
2.94027e-28
2.74289e-26
1.96232e-24
1.2735e-22
7.39039e-21
3.77915e-19
1.67118e-17
6.23244e-16
1.89269e-14
4.44281e-13
7.40597e-12
7.4819e-11
3.15174e-10
3.11998e-10
7.12107e-11
7.34697e-12
5.17982e-27
6.29971e-27
7.78607e-27
1.05861e-26
1.04751e-25
7.52759e-24
5.48472e-22
3.591e-20
2.08496e-18
1.05756e-16
4.59417e-15
1.66316e-13
4.82276e-12
1.05282e-10
1.54913e-09
1.1925e-08
1.19244e-08
1.5486e-09
1.10089e-10
2.62507e-26
2.90227e-26
3.19299e-26
3.29806e-26
-6.96529e-26
-5.15885e-24
-1.57364e-22
2.90207e-21
8.79242e-19
7.86315e-17
4.83587e-15
2.25255e-13
7.97464e-12
2.05743e-10
3.49943e-09
3.05499e-08
3.05889e-08
3.54441e-09
2.20174e-10
-7.91547e-26
-1.05015e-25
-1.41374e-25
-2.06285e-25
-1.86862e-24
-1.20836e-22
-8.10866e-21
-4.90274e-19
-2.63036e-17
-1.23182e-15
-4.92886e-14
-1.63676e-12
-4.32679e-11
-8.53535e-10
-1.12156e-08
-7.61576e-08
-7.60428e-08
-1.10861e-08
-8.78715e-10
-1.11172e-24
-1.28165e-24
-1.48994e-24
-1.76066e-24
-5.59595e-24
-3.04401e-22
-2.27443e-20
-1.53164e-18
-9.13297e-17
-4.75312e-15
-2.11761e-13
-7.86192e-12
-2.33879e-10
-5.24119e-09
-7.92307e-08
-6.26726e-07
-6.26866e-07
-7.94009e-08
-5.5004e-09
-1.33105e-24
-1.11975e-24
-7.33356e-25
-4.35127e-26
9.95656e-24
5.94871e-22
3.28786e-20
1.53548e-18
5.60976e-17
1.26839e-15
-1.05365e-14
-2.69819e-12
-1.44836e-10
-4.62451e-09
-8.99104e-08
-8.59948e-07
-8.61582e-07
-9.17863e-08
-5.03747e-09
2.92293e-23
3.48333e-23
4.2064e-23
5.13517e-23
1.32145e-22
5.49214e-21
3.71663e-19
2.29427e-17
1.26015e-15
6.06067e-14
2.50017e-12
8.60146e-11
2.37039e-09
4.91433e-08
6.85868e-07
5.00607e-06
5.00315e-06
6.82617e-07
5.10487e-08
1.37971e-22
1.50148e-22
1.62743e-22
1.75572e-22
2.97829e-22
9.91841e-21
7.49164e-19
5.1474e-17
3.12677e-15
1.65593e-13
7.50252e-12
2.83169e-10
8.56319e-09
1.95101e-07
2.99914e-06
2.41197e-05
2.41278e-05
3.00871e-06
2.05023e-07
-3.78192e-22
-4.92537e-22
-6.48486e-22
-8.43975e-22
-1.49103e-21
-2.99025e-20
-1.72301e-18
-9.13823e-17
-4.17332e-15
-1.58107e-13
-4.65536e-12
-9.09381e-11
-4.18969e-10
3.93583e-08
1.30195e-06
1.55604e-05
1.56081e-05
1.35659e-06
4.68137e-08
-5.12215e-21
-5.81124e-21
-6.64106e-21
-7.57983e-21
-1.09594e-20
-1.93246e-19
-1.26881e-17
-7.89327e-16
-4.37828e-14
-2.13005e-12
-8.90486e-11
-3.11128e-09
-8.72895e-08
-1.84768e-06
-2.64144e-05
-0.000198071
-0.000198015
-2.63531e-05
-1.92561e-06
-6.67282e-21
-5.89714e-21
-4.51983e-21
-2.59012e-21
-3.17266e-21
-2.76285e-19
-2.14777e-17
-1.47442e-15
-8.95486e-14
-4.74701e-12
-2.15493e-10
-8.15676e-09
-2.47586e-07
-5.66662e-06
-8.75724e-05
-0.000708409
-0.000708638
-8.78427e-05
-5.95168e-06
1.13557e-19
1.33325e-19
1.5836e-19
1.87214e-19
2.3118e-19
1.04182e-18
4.83897e-17
2.61192e-15
1.23338e-13
4.92776e-12
1.59593e-10
3.87962e-09
5.85372e-08
1.02784e-07
-1.5947e-05
-0.000256288
-0.000257278
-1.70811e-05
-4.79685e-09
5.43043e-19
5.85883e-19
6.30682e-19
6.73663e-19
7.72034e-19
5.36785e-18
3.18914e-16
1.97591e-14
1.09445e-12
5.32334e-11
2.22766e-09
7.8008e-08
2.19647e-06
4.67286e-05
0.000672453
0.00508295
0.00508196
0.000671373
4.87443e-05
-1.06971e-18
-1.4053e-18
-1.85525e-18
-2.39366e-18
-2.93868e-18
3.92146e-18
5.65383e-16
3.79426e-14
2.24717e-12
1.16619e-10
5.19983e-09
1.93859e-07
5.80952e-06
0.000131548
0.00201506
0.0161877
0.0161911
0.00201919
0.000137902
-1.66164e-17
-1.86355e-17
-2.10431e-17
-2.36606e-17
-2.66172e-17
-3.91276e-17
-5.87471e-16
-2.75907e-14
-1.13646e-12
-3.57852e-11
-6.52627e-10
8.04017e-09
1.14173e-06
4.49148e-05
0.000961224
0.00972325
0.0097372
0.000977307
4.84379e-05
-2.81768e-17
-2.68681e-17
-2.42683e-17
-2.04086e-17
-1.60692e-17
-8.55614e-17
-5.26631e-15
-3.22776e-13
-1.76546e-11
-8.48441e-10
-3.51016e-08
-1.21591e-06
-3.38842e-05
-0.000713811
-0.0101769
-0.07627
-0.0762524
-0.0101575
-0.000744328
2.89064e-16
3.36684e-16
3.96214e-16
4.63625e-16
5.3711e-16
4.52418e-16
-1.14087e-14
-7.74804e-13
-4.43057e-11
-2.22569e-09
-9.63506e-08
-3.4968e-06
-0.000102252
-0.00226414
-0.0339861
-0.268205
-0.268221
-0.0340074
-0.00236819
1.53815e-15
1.65417e-15
1.77931e-15
1.90205e-15
2.01797e-15
2.03178e-15
-5.50984e-15
-5.54968e-13
-3.52922e-11
-1.94155e-09
-9.1157e-08
-3.56051e-06
-0.000111352
-0.00262317
-0.0416935
-0.346423
-0.346525
-0.0418148
-0.00275153
-1.35205e-15
-1.97132e-15
-2.79563e-15
-3.77735e-15
-4.92419e-15
-5.75537e-15
2.62142e-14
1.99216e-12
1.04745e-10
4.80093e-09
1.88629e-07
6.17285e-06
0.000161438
0.00316483
0.0415503
0.283745
0.283554
0.0413327
0.00328999
-3.61065e-14
-4.02189e-14
-4.50966e-14
-5.03728e-14
-5.6e-14
-6.01256e-14
6.25919e-14
8.01648e-12
4.46817e-10
2.17305e-08
9.11578e-07
3.20905e-05
0.000911074
0.0196048
0.286283
2.20193
2.20174
0.286084
0.0204708
-8.47428e-14
-8.50539e-14
-8.38349e-14
-8.09169e-14
-7.5942e-14
-6.49202e-14
2.03072e-13
1.6365e-11
9.20586e-10
4.54945e-08
1.94067e-06
6.95129e-05
0.00200928
0.044047
0.655591
5.13879
5.13871
0.655545
0.0460194
4.40025e-13
5.14672e-13
6.07084e-13
7.11048e-13
8.27034e-13
9.60917e-13
1.46698e-12
2.45719e-11
1.31932e-09
6.56275e-08
2.82137e-06
0.000101869
0.0029687
0.0656233
0.985
7.78473
7.78476
0.985112
0.0685687
2.92991e-12
3.1504e-12
3.39485e-12
3.64245e-12
3.88928e-12
4.13741e-12
4.77895e-12
3.08043e-11
1.49128e-09
7.42622e-08
3.20286e-06
0.00011603
0.00339292
0.0752619
1.13366
8.99048
8.99055
1.13382
0.0786367
8.75682e-13
2.22507e-13
-6.53928e-13
-1.70784e-12
-2.95542e-12
-4.4121e-12
-5.7054e-12
1.80573e-11
1.47187e-09
7.40514e-08
3.19552e-06
0.000115802
0.00338744
0.0751676
1.13266
8.98599
8.98604
1.13281
0.078535
-4.86222e-11
-5.41174e-11
-6.05994e-11
-6.76013e-11
-7.51022e-11
-8.30955e-11
-9.11871e-11
-7.49e-11
1.34459e-09
7.25266e-08
3.13254e-06
0.000113462
0.00331711
0.0735647
1.10786
8.78424
8.78429
1.108
0.0768609
-1.58553e-10
-1.63366e-10
-1.67461e-10
-1.70248e-10
-1.71434e-10
-1.70709e-10
-1.67349e-10
-1.36492e-10
1.30273e-09
7.25918e-08
3.13626e-06
0.000113595
0.00332093
0.073648
1.10909
8.7938
8.79384
1.10923
0.0769483
3.28041e-10
3.99858e-10
4.8793e-10
5.86921e-10
6.97246e-10
8.19629e-10
9.55179e-10
1.12914e-09
2.72598e-09
7.43576e-08
3.1461e-06
0.0001139
0.00333013
0.0738596
1.1124
8.82091
8.82096
1.11254
0.0771691
3.43282e-09
3.69853e-09
3.99643e-09
4.30351e-09
4.61666e-09
4.93345e-09
5.25147e-09
5.59201e-09
7.33365e-09
7.9008e-08
3.14734e-06
0.000113771
0.00332608
0.0737664
1.11095
8.80902
8.80907
1.11109
0.0770719
4.78882e-09
4.45622e-09
3.98696e-09
3.39195e-09
2.65807e-09
1.77042e-09
7.13688e-10
-5.04071e-10
-5.17433e-10
6.92099e-08
3.13621e-06
0.000113789
0.00332706
0.0737892
1.1113
8.81193
8.81197
1.11144
0.0770957
-3.66212e-08
-4.11939e-08
-4.65175e-08
-5.22632e-08
-5.84216e-08
-6.49964e-08
-7.19884e-08
-7.9371e-08
-8.57552e-08
-2.25791e-08
3.03759e-06
0.000113679
0.00332683
0.0737868
1.11127
8.81163
8.81168
1.11141
0.0770934
-1.67349e-07
-1.74447e-07
-1.81653e-07
-1.88254e-07
-1.94066e-07
-1.9892e-07
-2.02624e-07
-2.04941e-07
-2.04254e-07
-1.31756e-07
2.94025e-06
0.000113599
0.0033269
0.0737907
1.11134
8.81221
8.81226
1.11148
0.0770981
4.72507e-08
8.92561e-08
1.39821e-07
1.96957e-07
2.61059e-07
3.32634e-07
4.12186e-07
5.00227e-07
5.98588e-07
7.76217e-07
3.96079e-06
0.000114733
0.00332793
0.0737867
1.11127
8.81176
8.8118
1.11141
0.0770942
2.29556e-06
2.48458e-06
2.69505e-06
2.91445e-06
3.14141e-06
3.37461e-06
3.61232e-06
3.85245e-06
4.09394e-06
4.4026e-06
7.70266e-06
0.000118542
0.00333036
0.0737492
1.11059
8.80643
8.80647
1.11072
0.0770486
5.20254e-06
5.1352e-06
5.02178e-06
4.84556e-06
4.59491e-06
4.25977e-06
3.83111e-06
3.30098e-06
2.66373e-06
1.98191e-06
4.17786e-06
0.000113761
0.00332192
0.0736673
1.10925
8.79532
8.79536
1.10936
0.0769422
-1.47378e-05
-1.73096e-05
-2.02831e-05
-2.35277e-05
-2.70127e-05
-3.0711e-05
-3.45962e-05
-3.86424e-05
-4.28228e-05
-4.7044e-05
-4.83528e-05
5.7882e-05
0.00326617
0.0736845
1.11023
8.80171
8.80174
1.11033
0.0769547
-9.57672e-05
-0.000102022
-0.000107775
-0.000112757
-0.000116958
-0.000120381
-0.000123027
-0.0001249
-0.000126001
-0.000126265
-0.000122766
-1.04127e-05
0.00322805
0.0743044
1.12123
8.88758
8.88762
1.12146
0.077778
-3.04205e-05
-3.16464e-06
2.47357e-05
5.30505e-05
8.17759e-05
0.000110902
0.000140419
0.000170317
0.000200586
0.000231285
0.000265332
0.000408624
0.0037216
0.0761476
1.14534
9.07985
9.08017
1.14627
0.0805942
0.00137414
0.00140884
0.00144614
0.00148354
0.00152097
0.00155844
0.00159594
0.00163345
0.00167099
0.00170861
0.00174921
0.00189852
0.00522
0.0779381
1.15448
9.1595
9.15992
1.15557
0.0824677
0.00285892
0.00288961
0.00292485
0.0029601
0.00299521
0.00303017
0.00306498
0.00309963
0.00313413
0.00316852
0.00320571
0.0033474
0.00647829
0.0742184
1.07336
8.53144
8.53184
1.07385
0.0777558
0.0041672
0.0041888
0.00421586
0.00424287
0.00426958
0.00429599
0.00432208
0.00434785
0.00437331
0.00439853
0.00442638
0.00454871
0.00716936
0.0608524
0.831877
6.61645
6.61656
0.830297
0.0615234
0.00507499
0.00508339
0.005097
0.00511055
0.00512374
0.00513657
0.00514903
0.00516114
0.00517288
0.00518437
0.00519847
0.00529341
0.00717669
0.0400241
0.46645
3.68339
3.68297
0.46161
0.0363809
0.00542979
0.00542554
0.00542563
0.00542575
0.00542562
0.00542525
0.00542463
0.00542377
0.00542268
0.00542145
0.00542301
0.00549423
0.00674033
0.0212432
0.14008
1.04043
1.03952
0.132287
0.0137523
0.00530775
0.00529649
0.00528884
0.00528135
0.00527379
0.00526616
0.00525845
0.00525068
0.00524284
0.00523505
0.00523024
0.00529057
0.00625831
0.0125932
-0.00747256
-0.164239
-0.165352
-0.0165891
0.00336639
0.00496712
0.00495489
0.00494596
0.00493729
0.00492868
0.00492012
0.00491161
0.00490317
0.00489479
0.00488658
0.0048815
0.00494186
0.00591488
0.0123427
-0.00681336
-0.160069
-0.161163
-0.0159002
0.00313603
0.00462661
0.00461649
0.00460964
0.00460314
0.00459676
0.0045905
0.00458434
0.00457825
0.00457224
0.0045664
0.00456365
0.00462726
0.00565005
0.0134544
0.0174884
0.0411966
0.0401356
0.00861868
0.0045349
0.00434442
0.00433644
0.00433105
0.00432547
0.0043195
0.00431315
0.0043064
0.00429928
0.00429177
0.00428399
0.00427892
0.00434047
0.00536864
0.0131795
0.016083
0.0314742
0.0303893
0.00709213
0.00412052
0.00398913
0.00396484
0.00394282
0.00392079
0.00389857
0.00387617
0.0038536
0.00383085
0.00380794
0.00378497
0.00376501
0.00381323
0.00484367
0.0126337
0.0124622
0.00403006
0.00281056
0.00302738
0.00300421
0.00297933
0.0029524
0.00292655
0.00290084
0.00287515
0.00284946
0.00282378
0.00279811
0.00277246
0.00274695
0.00272461
0.00277105
0.0038097
0.0117499
0.0129485
0.0149459
0.013729
0.00347173
0.00209245
0.00196866
0.00194488
0.00192106
0.00189741
0.00187385
0.0018504
0.00182704
0.00180379
0.00178065
0.00175771
0.0017378
0.00178159
0.00274651
0.0101317
0.0109425
0.0104175
0.00929749
0.00214183
0.00117543
0.0010846
0.00106639
0.00104758
0.00102895
0.00101049
0.000992202
0.000974094
0.000956162
0.000938411
0.000920915
0.000905829
0.000939818
0.00168609
0.00742691
0.00810496
0.00806136
0.00720259
0.00129408
0.000504708
0.000434053
0.000423231
0.000411826
0.000400594
0.000389556
0.000378712
0.00036806
0.000357599
0.00034733
0.000337291
0.000328661
0.00034718
0.000761155
0.00396649
0.00434001
0.00428189
0.00380862
0.000550315
0.000119218
8.26032e-05
7.85757e-05
7.42861e-05
7.01104e-05
6.60639e-05
6.21449e-05
5.8351e-05
5.46798e-05
5.11293e-05
4.77081e-05
4.47396e-05
4.93934e-05
0.000165314
0.00107428
0.00117995
0.00116676
0.00103482
0.000109593
-1.09855e-05
-2.0248e-05
-2.05671e-05
-2.09067e-05
-2.12104e-05
-2.14754e-05
-2.17029e-05
-2.18945e-05
-2.20517e-05
-2.21761e-05
-2.22709e-05
-2.23937e-05
-2.3757e-05
-4.3504e-05
-0.000191762
-0.000209394
-0.000207034
-0.00018483
-3.38944e-05
-1.35626e-05
-1.16219e-05
-1.12608e-05
-1.08723e-05
-1.0487e-05
-1.01065e-05
-9.73104e-06
-9.36076e-06
-8.99589e-06
-8.63666e-06
-8.28508e-06
-7.99544e-06
-8.96324e-06
-2.85005e-05
-0.000180764
-0.000198507
-0.000196273
-0.00017428
-1.95803e-05
5.23979e-07
2.03831e-06
2.07831e-06
2.12096e-06
2.15998e-06
2.19501e-06
2.22616e-06
2.25356e-06
2.27733e-06
2.29761e-06
2.31481e-06
2.33737e-06
2.54654e-06
5.52962e-06
2.80827e-05
3.07581e-05
3.04163e-05
2.70939e-05
4.17932e-06
1.13306e-06
8.62094e-07
8.24245e-07
7.83464e-07
7.43343e-07
7.04066e-07
6.65641e-07
6.28074e-07
5.91367e-07
5.55526e-07
5.20734e-07
4.92388e-07
5.90736e-07
2.57331e-06
1.81485e-05
1.99543e-05
1.97389e-05
1.75225e-05
1.71824e-06
-3.07081e-07
-4.43467e-07
-4.36174e-07
-4.2834e-07
-4.20458e-07
-4.12545e-07
-4.04605e-07
-3.96644e-07
-3.88669e-07
-3.80687e-07
-3.728e-07
-3.67846e-07
-4.28698e-07
-1.47102e-06
-9.57114e-06
-1.05163e-05
-1.04045e-05
-9.24667e-06
-1.03019e-06
2.93002e-08
1.05019e-07
1.04596e-07
1.04169e-07
1.03713e-07
1.03223e-07
1.027e-07
1.02143e-07
1.01555e-07
1.00935e-07
1.0031e-07
1.00409e-07
1.1741e-07
3.86881e-07
2.47184e-06
2.71577e-06
2.68736e-06
2.38947e-06
2.75477e-07
2.6763e-09
-1.70594e-08
-1.71575e-08
-1.72736e-08
-1.73861e-08
-1.74931e-08
-1.75943e-08
-1.76898e-08
-1.77794e-08
-1.78634e-08
-1.79459e-08
-1.81575e-08
-2.13924e-08
-6.98248e-08
-4.43465e-07
-4.87255e-07
-4.82239e-07
-4.28933e-07
-5.02569e-08
-1.40792e-09
2.13814e-09
2.16936e-09
2.20528e-09
2.24127e-09
2.27694e-09
2.31226e-09
2.3472e-09
2.38174e-09
2.41587e-09
2.45019e-09
2.50274e-09
2.9754e-09
9.72892e-09
6.17124e-08
6.78131e-08
6.71263e-08
5.97233e-08
7.0618e-09
2.73884e-10
-2.18999e-10
-2.2405e-10
-2.29851e-10
-2.35748e-10
-2.4169e-10
-2.47671e-10
-2.53689e-10
-2.5974e-10
-2.65823e-10
-2.72005e-10
-2.80337e-10
-3.36566e-10
-1.1085e-09
-7.03923e-09
-7.73603e-09
-7.65892e-09
-6.81599e-09
-8.10424e-10
-3.71121e-11
1.89768e-11
1.95717e-11
2.02575e-11
2.09623e-11
2.16809e-11
2.2413e-11
2.31585e-11
2.39171e-11
2.4689e-11
2.54806e-11
2.64901e-11
3.21324e-11
1.06932e-10
6.80703e-10
7.48178e-10
7.40839e-10
6.59458e-10
7.86817e-11
3.98404e-12
-1.42205e-12
-1.47835e-12
-1.54357e-12
-1.61127e-12
-1.68101e-12
-1.7528e-12
-1.82666e-12
-1.90261e-12
-1.98068e-12
-2.06145e-12
-2.16149e-12
-2.65e-12
-8.92804e-12
-5.70193e-11
-6.26795e-11
-6.20743e-11
-5.52676e-11
-6.6083e-12
-3.57578e-13
8.28401e-14
8.67347e-14
9.1271e-14
9.60179e-14
1.00951e-13
1.06072e-13
1.11387e-13
1.16899e-13
1.22613e-13
1.28569e-13
1.35834e-13
1.68163e-13
5.73421e-13
3.67485e-12
4.04005e-12
4.00159e-12
3.56351e-12
4.2652e-13
2.4073e-14
)
;

boundaryField
{
    top
    {
        type            zeroGradient;
    }
    left
    {
        type            fixedValue;
        value           uniform 0;
    }
    bottom
    {
        type            zeroGradient;
    }
    right
    {
        type            zeroGradient;
    }
    frontAndBack
    {
        type            empty;
    }
}


// ************************************************************************* //
