/*--------------------------------*- C++ -*----------------------------------*\
| =========                 |                                                 |
| \\      /  F ield         | OpenFOAM: The Open Source CFD Toolbox           |
|  \\    /   O peration     | Version:  v1806                                 |
|   \\  /    A nd           | Web:      www.OpenFOAM.com                      |
|    \\/     M anipulation  |                                                 |
\*---------------------------------------------------------------------------*/
FoamFile
{
    version     2.0;
    format      ascii;
    class       volScalarField;
    location    "0.07";
    object      T;
}
// * * * * * * * * * * * * * * * * * * * * * * * * * * * * * * * * * * * * * //

dimensions      [0 0 0 1 0 0 0];


internalField   nonuniform List<scalar> 
1881
(
3.29075e-104
6.84366e-103
1.3902e-101
2.63825e-100
4.68659e-99
7.91975e-98
1.34154e-96
2.53554e-95
5.85305e-94
1.55372e-92
4.07212e-91
9.30651e-90
1.68401e-88
2.13813e-87
1.48371e-86
1.66986e-86
1.66823e-86
1.47182e-86
2.16974e-87
2.54194e-102
5.29853e-101
1.08073e-99
2.07098e-98
3.77804e-97
6.86683e-96
1.37809e-94
3.41148e-93
1.01296e-91
3.11879e-90
8.79622e-89
2.09566e-87
3.91035e-86
5.10189e-85
3.63048e-84
4.07422e-84
4.07042e-84
3.60213e-84
5.16847e-85
1.95829e-100
4.09646e-99
8.42191e-98
1.64884e-96
3.19313e-95
6.72116e-94
1.74251e-92
5.61348e-91
1.96408e-89
6.55653e-88
1.93231e-86
4.75029e-85
9.11183e-84
1.22088e-82
8.91166e-82
9.975e-82
9.96616e-82
8.84396e-82
1.23488e-82
1.48669e-98
3.13054e-97
6.54751e-96
1.34537e-94
2.951e-93
7.88256e-92
2.68709e-90
1.04055e-88
3.98973e-87
1.39688e-85
4.25255e-84
1.07506e-82
2.11852e-81
2.91609e-80
2.18512e-79
2.43966e-79
2.4376e-79
2.16899e-79
2.945e-80
1.11402e-96
2.3785e-95
5.16976e-94
1.17764e-92
3.20369e-91
1.13062e-89
4.73491e-88
2.03677e-86
8.23192e-85
2.98159e-83
9.33787e-82
2.42554e-80
4.91179e-79
6.95069e-78
5.35213e-77
5.96028e-77
5.95553e-77
5.31374e-77
7.0088e-78
8.27389e-95
1.82142e-93
4.30313e-92
1.18379e-90
4.24383e-89
1.88133e-87
8.90099e-86
4.06308e-84
1.70229e-82
6.3463e-81
2.04241e-79
5.45202e-78
1.13532e-76
1.65327e-75
1.30971e-74
1.45473e-74
1.45363e-74
1.3006e-74
1.66447e-75
6.15195e-93
1.44797e-91
4.01544e-90
1.43964e-88
6.61778e-87
3.38256e-85
1.7134e-83
8.13059e-82
3.50883e-80
1.3444e-78
4.44622e-77
1.22048e-75
2.61589e-74
3.9245e-73
3.20285e-72
3.54794e-72
3.54543e-72
3.18125e-72
3.94466e-73
4.68209e-91
1.2599e-89
4.46519e-88
2.08607e-86
1.13216e-84
6.2681e-83
3.31345e-81
1.62131e-79
7.19233e-78
2.83175e-76
9.62939e-75
2.72046e-73
6.00821e-72
9.29872e-71
7.82975e-70
8.64946e-70
8.64368e-70
7.77862e-70
9.33073e-71
3.80675e-89
1.27937e-87
5.95913e-86
3.37401e-84
2.01354e-82
1.1696e-80
6.385e-79
3.21251e-77
1.46438e-75
5.92733e-74
2.07415e-72
6.03743e-71
1.3757e-69
2.19968e-68
1.91414e-67
2.10853e-67
2.10721e-67
1.90205e-67
2.20337e-68
3.51587e-87
1.55938e-85
9.04079e-84
5.73708e-82
3.61852e-80
2.17533e-78
1.22169e-76
6.31605e-75
2.95943e-73
1.23244e-71
4.44247e-70
1.33395e-68
3.14057e-67
5.1965e-66
4.68156e-65
5.14191e-65
5.1389e-65
4.65298e-65
5.19569e-66
3.86251e-85
2.19851e-83
1.46245e-81
9.90659e-80
6.4867e-78
4.01474e-76
2.31696e-74
1.23109e-72
5.93342e-71
2.54465e-69
9.4598e-68
2.93433e-66
7.14937e-65
1.22632e-63
1.14596e-62
1.25486e-62
1.25418e-62
1.13921e-62
1.2238e-63
4.98276e-83
3.3615e-81
2.41934e-79
1.70891e-77
1.15335e-75
7.33645e-74
4.35083e-72
2.37734e-70
1.17964e-68
5.21591e-67
2.00245e-65
6.42649e-64
1.62321e-62
2.89175e-61
2.80844e-60
3.06588e-60
3.06432e-60
2.7925e-60
2.88014e-61
7.1206e-81
5.30712e-79
4.00821e-77
2.92329e-75
2.02833e-73
1.32569e-71
8.08284e-70
4.5456e-68
2.32464e-66
1.0611e-64
4.21325e-63
1.40136e-61
3.67615e-60
6.81521e-59
6.89292e-58
7.50113e-58
7.4976e-58
6.85529e-58
6.77417e-59
1.06574e-78
8.42402e-77
6.58643e-75
4.94128e-73
3.52253e-71
2.36638e-69
1.48447e-67
8.6009e-66
4.53889e-64
2.14188e-62
8.81045e-61
3.04252e-59
8.30544e-58
1.60555e-56
1.69461e-55
1.83824e-55
1.83744e-55
1.68573e-55
1.59262e-56
1.61435e-76
1.32736e-74
1.06855e-72
8.2365e-71
6.03364e-69
4.16892e-67
2.69329e-65
1.60954e-63
8.77705e-62
4.28872e-60
1.83078e-58
6.5766e-57
1.87189e-55
3.78104e-54
4.17352e-53
4.51261e-53
4.51081e-53
4.15258e-53
3.74291e-54
2.43263e-74
2.0636e-72
1.70713e-70
1.35189e-68
1.01821e-66
7.24215e-65
4.82358e-63
2.97719e-61
1.68017e-59
8.5154e-58
3.77945e-56
1.41507e-54
4.20818e-53
8.90041e-52
1.02968e-50
1.1097e-50
1.10929e-50
1.02474e-50
8.79263e-52
3.61637e-72
3.15503e-70
2.68098e-68
2.18207e-66
1.69104e-64
1.23939e-62
8.52093e-61
5.43964e-59
3.1822e-57
1.67587e-55
7.74847e-54
3.02988e-52
9.43377e-51
2.09377e-49
2.54467e-48
2.73338e-48
2.73247e-48
2.53306e-48
2.06424e-49
5.28065e-70
4.73328e-68
4.13233e-66
3.45904e-64
2.76078e-62
2.0874e-60
1.48339e-58
9.80986e-57
5.95925e-55
3.26723e-53
1.57678e-51
6.45261e-50
2.108e-48
4.92075e-47
6.29851e-46
6.74311e-46
6.74108e-46
6.27123e-46
4.84175e-47
7.55281e-68
6.955e-66
6.24167e-64
5.37778e-62
4.42512e-60
3.45599e-58
2.54234e-56
1.74459e-54
1.10252e-52
6.30512e-51
3.18257e-49
1.36589e-47
4.69242e-46
1.15489e-44
1.56118e-43
1.66579e-43
1.66534e-43
1.55478e-43
1.13416e-44
1.05576e-65
9.99125e-64
9.22362e-62
8.18759e-60
6.95396e-58
5.61764e-56
4.28466e-54
3.05624e-52
2.01307e-50
1.20322e-48
6.36534e-47
2.87134e-45
1.03981e-43
2.70548e-42
3.87425e-41
4.11994e-41
4.11894e-41
3.8593e-41
2.65193e-42
1.43923e-63
1.40055e-61
1.33112e-59
1.21866e-57
1.06971e-55
8.95168e-54
7.09066e-52
5.26686e-50
3.6227e-48
2.26763e-46
1.26e-44
5.98784e-43
2.2917e-41
6.32243e-40
9.62316e-39
1.01988e-38
1.01966e-38
9.58834e-39
6.18619e-40
1.90911e-61
1.91168e-59
1.8723e-57
1.76991e-55
1.60779e-53
1.3959e-51
1.15026e-49
8.91358e-48
6.41488e-46
4.21386e-44
2.46478e-42
1.2371e-40
5.01828e-39
1.47275e-37
2.39133e-36
2.52578e-36
2.5253e-36
2.38326e-36
1.43859e-37
2.4581e-59
2.53477e-57
2.56081e-55
2.50258e-53
2.35601e-51
2.12558e-49
1.82529e-47
1.47836e-45
1.1154e-43
7.70567e-42
4.75614e-40
2.52816e-38
1.09038e-36
3.4162e-35
5.94121e-34
6.25393e-34
6.25291e-34
5.92265e-34
3.33175e-35
3.06359e-57
3.25603e-55
3.39674e-53
3.43601e-51
3.35719e-49
3.15243e-47
2.82594e-45
2.39671e-43
1.89961e-41
1.38331e-39
9.0332e-38
5.10058e-36
2.34698e-34
7.88043e-33
1.47486e-31
1.54721e-31
1.54699e-31
1.47062e-31
7.67459e-33
3.68414e-55
4.03914e-53
4.35573e-51
4.56648e-49
4.63722e-47
4.53921e-45
4.25507e-43
3.78601e-41
3.15899e-39
2.43073e-37
1.6841e-35
1.01343e-33
4.99367e-32
1.80506e-30
3.65787e-29
3.82403e-29
3.82358e-29
3.64825e-29
1.75546e-30
4.25892e-53
4.82079e-51
5.3795e-49
5.85223e-47
6.18515e-45
6.32104e-43
6.20667e-41
5.80478e-39
5.11016e-37
4.16576e-35
3.07157e-33
1.97684e-31
1.04758e-29
4.09998e-28
9.07494e-27
9.45338e-27
9.45244e-27
9.05328e-27
3.98132e-28
4.71209e-51
5.51109e-49
6.3699e-47
7.19881e-45
7.92865e-43
8.47193e-41
8.72804e-39
8.59696e-37
8.00367e-35
6.93149e-33
5.45701e-31
3.77114e-29
2.16061e-27
9.22955e-26
2.25949e-24
2.34489e-24
2.3447e-24
2.25463e-24
8.94633e-26
4.96353e-49
6.0021e-47
7.1916e-45
8.45132e-43
9.71105e-41
1.08636e-38
1.17617e-36
1.22252e-34
1.20655e-32
1.11334e-30
9.39241e-29
7.0029e-27
4.36921e-25
2.06064e-23
5.67216e-22
5.86326e-22
5.86288e-22
5.66132e-22
1.99322e-23
4.94613e-47
6.1866e-45
7.68871e-43
9.4025e-41
1.1282e-38
1.32289e-36
1.50742e-34
1.65659e-32
1.73743e-30
1.71348e-28
1.55541e-26
1.2591e-24
8.64234e-23
4.56941e-21
1.43984e-19
1.48233e-19
1.48225e-19
1.43745e-19
4.41131e-21
4.62643e-45
5.98609e-43
7.71827e-41
9.82576e-39
1.23188e-36
1.51538e-34
1.81972e-32
2.11811e-30
2.36636e-28
2.50258e-26
2.4571e-24
2.17823e-22
1.66739e-20
1.0055e-18
3.67897e-17
3.77282e-17
3.77269e-17
3.67384e-17
9.70025e-19
4.02281e-43
5.38204e-41
7.19722e-39
9.53675e-37
1.24938e-34
1.61305e-32
2.04302e-30
2.52233e-28
3.00856e-26
3.42493e-24
3.66173e-22
3.59562e-20
3.11813e-18
2.1765e-16
9.30052e-15
9.505e-15
9.50476e-15
9.29029e-15
2.1038e-16
3.21246e-41
4.43864e-39
6.14925e-37
8.47271e-35
1.15901e-32
1.56987e-30
2.09732e-28
2.7486e-26
3.50715e-24
4.31641e-22
5.06749e-20
5.58393e-18
5.56378e-16
4.52917e-14
2.25527e-12
2.29823e-12
2.29819e-12
2.25346e-12
4.40171e-14
2.31983e-39
3.30237e-37
4.7285e-35
6.75906e-33
9.63375e-31
1.36644e-28
1.92299e-26
2.67372e-24
3.65386e-22
4.88261e-20
6.34865e-18
7.93918e-16
9.16042e-14
8.69253e-12
5.0266e-10
5.11004e-10
5.10999e-10
5.02399e-10
8.51992e-12
1.48498e-37
2.16879e-35
3.1955e-33
4.71743e-31
6.97397e-29
1.03124e-26
1.52241e-24
2.23837e-22
3.27127e-20
4.7535e-18
6.87667e-16
9.80033e-14
1.30843e-11
1.44255e-09
9.7551e-08
9.89536e-08
9.89531e-08
9.75238e-08
1.42813e-09
8.20905e-36
1.22134e-33
1.83755e-31
2.77843e-29
4.22243e-27
6.44785e-25
9.88765e-23
1.52212e-20
2.35637e-18
3.69075e-16
5.88894e-14
9.47058e-12
1.45028e-09
1.86351e-07
1.53157e-05
1.5499e-05
1.5499e-05
1.53141e-05
1.86248e-07
3.78651e-34
5.67167e-32
8.59872e-30
1.31171e-27
2.01435e-25
3.1149e-23
4.85077e-21
7.61208e-19
1.2078e-16
1.95618e-14
3.27806e-12
5.67681e-10
9.70948e-08
1.48276e-05
0.00172425
0.00173897
0.00173897
0.00172424
1.49214e-05
1.39344e-32
2.06144e-30
3.07901e-28
4.61229e-26
6.92622e-24
1.04147e-21
1.56408e-19
2.333e-17
3.41885e-15
4.83078e-13
6.39866e-11
7.64429e-09
7.8237e-07
6.37891e-05
0.00367541
0.00373841
0.00373841
0.00367542
6.45681e-05
3.8736e-31
5.49747e-29
7.80671e-27
1.09839e-24
1.52392e-22
2.07006e-20
2.72556e-18
3.4326e-16
4.06624e-14
4.43786e-12
4.34974e-10
3.70643e-08
2.62792e-06
0.000145256
0.00559396
0.00573655
0.00573655
0.005594
0.000147881
7.72278e-30
1.01564e-27
1.31723e-25
1.66323e-23
2.03028e-21
2.37489e-19
2.63364e-17
2.73344e-15
2.61481e-13
2.26315e-11
1.73204e-09
1.1377e-07
6.15471e-06
0.000257593
0.00748217
0.00773349
0.0077335
0.00748228
0.000263745
1.08423e-28
1.29231e-26
1.49975e-24
1.67074e-22
1.77381e-20
1.77984e-18
1.67136e-16
1.45194e-14
1.1508e-12
8.1818e-11
5.10681e-09
2.71983e-07
1.1876e-05
0.000399987
0.00934918
0.00973702
0.00973703
0.00934945
0.00041186
1.09146e-27
1.17193e-25
1.21552e-23
1.19954e-21
1.11836e-19
9.77099e-18
7.92556e-16
5.90321e-14
3.98468e-12
2.39823e-10
1.2606e-08
5.62929e-07
2.05388e-05
0.000576849
0.0112541
0.0118099
0.0118099
0.0112547
0.000597385
8.10848e-27
7.81712e-25
7.2473e-23
6.36024e-21
5.24805e-19
4.0401e-17
2.87581e-15
1.87285e-13
1.10171e-11
5.76178e-10
2.62503e-08
1.01386e-06
3.19441e-05
0.000774328
0.0130644
0.0138058
0.0138059
0.0130655
0.00080627
4.81709e-26
4.19078e-24
3.49718e-22
2.75338e-20
2.03189e-18
1.39498e-16
8.83238e-15
5.10431e-13
2.65884e-11
1.22902e-09
4.94092e-08
1.68177e-06
4.66609e-05
0.000996181
0.0148431
0.0157909
0.015791
0.0148447
0.00104284
2.39335e-25
1.89025e-23
1.42997e-21
1.0183e-19
6.78273e-18
4.19513e-16
2.38881e-14
1.23962e-12
5.79004e-11
2.39691e-09
8.62108e-08
2.62332e-06
6.50483e-05
0.00124191
0.0165989
0.0177732
0.0177733
0.0166015
0.00130696
1.0316e-24
7.44599e-23
5.14295e-21
3.33764e-19
2.02269e-17
1.13652e-15
5.87146e-14
2.76106e-12
1.16749e-10
4.37158e-09
1.42128e-07
3.90779e-06
8.75606e-05
0.00151211
0.0183431
0.0197639
0.0197641
0.018347
0.00159967
3.92477e-24
2.60976e-22
1.65952e-20
9.8991e-19
5.50555e-17
2.8349e-15
1.34031e-13
5.76096e-12
2.22407e-10
7.59609e-09
2.25086e-07
5.63777e-06
0.000115075
0.00181204
0.0201123
0.0218039
0.0218041
0.020118
0.00192711
1.30616e-23
8.04274e-22
4.73645e-20
2.61413e-18
1.34403e-16
6.39231e-15
2.78933e-13
1.10574e-11
3.93448e-10
1.23785e-08
3.37744e-07
7.78786e-06
0.000146372
0.00212465
0.0218131
0.0237839
0.0237842
0.0218209
0.00227102
3.97947e-23
2.27828e-21
1.2481e-19
6.40395e-18
3.05901e-16
1.35092e-14
5.47058e-13
2.01158e-11
6.63656e-10
1.93532e-08
4.89342e-07
1.04567e-05
0.00018221
0.00245533
0.023486
0.0257492
0.0257497
0.0234965
0.00263754
1.1326e-22
6.04518e-21
3.09174e-19
1.48061e-17
6.59838e-16
2.71739e-14
1.02574e-12
3.51443e-11
1.08004e-09
2.93316e-08
6.90638e-07
1.37453e-05
0.000223204
0.00280702
0.0251515
0.0277223
0.027723
0.0251653
0.00303023
3.06186e-22
1.51954e-20
7.2656e-19
3.25798e-17
1.36003e-15
5.24574e-14
1.8539e-12
5.94463e-11
1.70908e-09
4.34091e-08
9.55753e-07
1.77882e-05
0.000270261
0.00318456
0.026835
0.0297326
0.0297335
0.0268528
0.00345482
8.24495e-22
3.67823e-20
1.61997e-18
6.76679e-17
2.64592e-15
9.58378e-14
3.18407e-12
9.60172e-11
2.59624e-09
6.20166e-08
1.28418e-06
2.24826e-05
0.000321505
0.00357083
0.0284647
0.031693
0.0316943
0.0284872
0.00389233
2.85171e-21
1.01891e-19
3.82735e-18
1.42293e-16
5.08728e-15
1.71083e-13
5.32078e-12
1.50832e-10
3.84201e-09
8.65483e-08
1.69116e-06
2.79549e-05
0.000377747
0.00397079
0.0300682
0.0336362
0.0336378
0.0300962
0.00434854
1.69689e-20
4.54956e-19
1.29247e-17
3.7725e-16
1.1163e-14
3.26063e-13
9.12248e-12
2.37882e-10
5.6474e-09
1.19448e-07
2.20058e-06
3.43815e-05
0.00043995
0.00438901
0.0316674
0.0355964
0.0355985
0.0317018
0.00482896
1.41903e-19
3.31819e-18
7.76944e-17
1.77263e-15
3.99246e-14
8.95916e-13
1.99879e-11
4.35899e-10
9.03543e-09
1.72308e-07
2.92389e-06
4.26438e-05
0.000513682
0.00485312
0.0333648
0.0377883
0.037791
0.0334075
0.0053668
1.1914e-18
2.69432e-17
5.96506e-16
1.24244e-14
2.43691e-13
4.51593e-12
7.95063e-11
1.33768e-09
2.15437e-08
3.293e-07
4.67032e-06
5.9271e-05
0.000641701
0.00557948
0.0358241
0.0418139
0.0418182
0.0358834
0.00622116
8.73789e-18
1.96377e-16
4.29895e-15
8.77826e-14
1.66466e-12
2.91874e-11
4.71116e-10
6.97225e-09
9.42634e-08
1.15984e-06
1.29121e-05
0.000128488
0.00111429
0.0080218
0.0426338
0.0577906
0.0578023
0.0427621
0.00913598
5.27526e-17
1.1851e-15
2.59048e-14
5.27242e-13
9.93698e-12
1.72347e-10
2.73109e-09
3.92121e-08
5.05111e-07
5.76947e-06
5.75985e-05
0.000493386
0.00353496
0.0203406
0.0853306
0.153333
0.153384
0.0858232
0.0238752
2.48717e-16
5.59207e-15
1.22302e-13
2.48958e-12
4.68986e-11
8.1221e-10
1.28313e-08
1.83205e-07
2.3376e-06
2.62842e-05
0.000255852
0.00210614
0.0141957
0.074646
0.280371
0.587166
0.587396
0.282475
0.0888411
8.52886e-16
1.91951e-14
4.20183e-13
8.56008e-12
1.61358e-10
2.7956e-09
4.41668e-08
6.30279e-07
8.0307e-06
9.00482e-05
0.000872256
0.00712153
0.0473609
0.243847
0.892623
1.94842
1.94921
0.899739
0.291207
1.91345e-15
4.30967e-14
9.4406e-13
1.92458e-11
3.63017e-10
6.29307e-09
9.94704e-08
1.41997e-06
1.80948e-05
0.000202854
0.00196353
0.016007
0.10616
0.544114
1.98139
4.37011
4.37188
1.99738
0.650273
2.51758e-15
5.67004e-14
1.24199e-12
2.53179e-11
4.7752e-10
8.27743e-09
1.30824e-07
1.86734e-06
2.37919e-05
0.000266663
0.00258033
0.0210248
0.139332
0.713279
2.59368
5.73137
5.73368
2.61468
0.852609
2.71379e-15
6.1115e-14
1.3386e-12
2.72855e-11
5.146e-10
8.91964e-09
1.40966e-07
2.01197e-06
2.56328e-05
0.00028727
0.00277939
0.0226425
0.150005
0.767513
2.78879
6.16518
6.16767
2.81141
0.917517
2.75845e-15
6.21205e-14
1.36063e-12
2.77348e-11
5.23079e-10
9.06676e-09
1.43293e-07
2.04523e-06
2.60568e-05
0.000292022
0.0028253
0.0230148
0.152446
0.779726
2.83159
6.2607
6.26323
2.85458
0.932171
2.76712e-15
6.23181e-14
1.36501e-12
2.78254e-11
5.24813e-10
9.09725e-09
1.43782e-07
2.05229e-06
2.61477e-05
0.000293046
0.00283518
0.0230939
0.152946
0.782026
2.83855
6.27664
6.27919
2.86162
0.934971
2.76995e-15
6.23853e-14
1.36655e-12
2.78582e-11
5.25459e-10
9.10889e-09
1.43972e-07
2.05508e-06
2.61838e-05
0.00029345
0.00283899
0.0231228
0.153108
0.782579
2.83922
6.27866
6.28121
2.86232
0.935685
2.77279e-15
6.2452e-14
1.36807e-12
2.78903e-11
5.26083e-10
9.11997e-09
1.4415e-07
2.05763e-06
2.62159e-05
0.0002938
0.00284216
0.0231455
0.153223
0.782878
2.83907
6.27879
6.28134
2.86218
0.9361
2.77678e-15
6.25434e-14
1.3701e-12
2.79319e-11
5.2687e-10
9.13354e-09
1.44362e-07
2.06057e-06
2.6252e-05
0.000294179
0.00284548
0.0231683
0.153332
0.783132
2.83881
6.27867
6.28122
2.86196
0.936462
2.78228e-15
6.26661e-14
1.37275e-12
2.7985e-11
5.27847e-10
9.14994e-09
1.44611e-07
2.06395e-06
2.62921e-05
0.000294589
0.00284895
0.0231913
0.153437
0.783354
2.83852
6.27848
6.28103
2.86169
0.936789
2.78882e-15
6.28089e-14
1.37577e-12
2.80443e-11
5.28916e-10
9.16752e-09
1.44872e-07
2.0674e-06
2.63323e-05
0.000294989
0.00285223
0.0232121
0.153525
0.783501
2.83808
6.27808
6.28064
2.86127
0.937024
2.79442e-15
6.29297e-14
1.3783e-12
2.80931e-11
5.29782e-10
9.18156e-09
1.45077e-07
2.07007e-06
2.63627e-05
0.000295283
0.00285455
0.0232256
0.15357
0.783476
2.83726
6.27718
6.27974
2.86046
0.937045
2.797e-15
6.29849e-14
1.37944e-12
2.81151e-11
5.3017e-10
9.18779e-09
1.45167e-07
2.07122e-06
2.63753e-05
0.000295397
0.00285532
0.0232283
0.153558
0.783238
2.836
6.27569
6.27825
2.8592
0.936794
2.79776e-15
6.3001e-14
1.37977e-12
2.81214e-11
5.3028e-10
9.18952e-09
1.45191e-07
2.0715e-06
2.63778e-05
0.00029541
0.00285521
0.0232248
0.153512
0.782877
2.8345
6.27388
6.27644
2.8577
0.936387
2.79791e-15
6.30041e-14
1.37984e-12
2.81225e-11
5.30298e-10
9.18973e-09
1.45192e-07
2.07148e-06
2.63767e-05
0.000295383
0.00285475
0.0232187
0.153451
0.782464
2.83292
6.27195
6.27451
2.85612
0.935914
2.79787e-15
6.3003e-14
1.37981e-12
2.81217e-11
5.30278e-10
9.18929e-09
1.45183e-07
2.0713e-06
2.63735e-05
0.00029533
0.00285402
0.0232103
0.153377
0.781999
2.83123
6.26976
6.27232
2.85442
0.935374
2.79736e-15
6.29897e-14
1.37948e-12
2.81144e-11
5.30126e-10
9.1864e-09
1.45132e-07
2.07049e-06
2.63618e-05
0.00029518
0.0028523
0.0231938
0.153248
0.781272
2.82866
6.26562
6.26817
2.85182
0.934516
2.79367e-15
6.28952e-14
1.37718e-12
2.80633e-11
5.29087e-10
9.16714e-09
1.44809e-07
2.06562e-06
2.62963e-05
0.000294407
0.00284443
0.0231264
0.152782
0.778824
2.81988
6.24765
6.25019
2.84296
0.931578
2.77225e-15
6.23459e-14
1.36384e-12
2.77667e-11
5.23066e-10
9.05602e-09
1.42956e-07
2.03792e-06
2.59293e-05
0.000290153
0.0028021
0.0227735
0.150405
0.766555
2.77538
6.15025
6.15272
2.798
0.916793
2.67723e-15
5.99041e-14
1.30446e-12
2.64451e-11
4.96219e-10
8.56034e-09
1.34691e-07
1.91447e-06
2.42954e-05
0.000271256
0.00261458
0.021216
0.139947
0.712647
2.57906
5.71505
5.7172
2.59965
0.8518
2.38505e-15
5.23831e-14
1.12127e-12
2.23625e-11
4.13177e-10
7.0254e-09
1.0907e-07
1.53147e-06
1.92227e-05
0.000212554
0.00203182
0.0163741
0.107422
0.544855
1.96689
4.35376
4.35491
1.98115
0.649515
1.87316e-15
3.9188e-14
7.99475e-13
1.51828e-11
2.66979e-10
4.32033e-09
6.38729e-08
8.55198e-07
1.02579e-05
0.000108727
0.00100029
0.00779692
0.0497636
0.247153
0.879712
1.93351
1.93289
0.882736
0.290655
1.5809e-15
3.16644e-14
6.16203e-13
1.10981e-11
1.83885e-10
2.78431e-09
3.82323e-08
4.71882e-07
5.18103e-06
4.99786e-05
0.000417125
0.00295231
0.0172275
0.0793397
0.267567
0.572231
0.570625
0.264256
0.0883375
1.48553e-15
2.92131e-14
5.56572e-13
9.77054e-12
1.56909e-10
2.28611e-09
2.99229e-08
3.47761e-07
3.53839e-06
3.09862e-05
0.000228774
0.00138937
0.00674647
0.0253892
0.0712883
0.137058
0.135132
0.0659404
0.0232783
1.46338e-15
2.8645e-14
5.42764e-13
9.46329e-12
1.50665e-10
2.17078e-09
2.79987e-08
3.19006e-07
3.15773e-06
2.65856e-05
0.00018517
0.0010283
0.00433464
0.0130552
0.0268521
0.0396968
0.0376989
0.0210383
0.00839395
1.4584e-15
2.85185e-14
5.39709e-13
9.39545e-12
1.49287e-10
2.14529e-09
2.75727e-08
3.12631e-07
3.07333e-06
2.56121e-05
0.000175584
0.000949891
0.0038218
0.0105193
0.0181594
0.0217825
0.0197704
0.0122498
0.00532221
1.4554e-15
2.84478e-14
5.3809e-13
9.36107e-12
1.48613e-10
2.13319e-09
2.73758e-08
3.09758e-07
3.03629e-06
2.51975e-05
0.00017165
0.000919254
0.00363467
0.00968253
0.0157016
0.0177185
0.0157029
0.00976134
0.00429834
1.44854e-15
2.83024e-14
5.35082e-13
9.30307e-12
1.47578e-10
2.11621e-09
2.71222e-08
3.0635e-07
2.99566e-06
2.47758e-05
0.000167935
0.000892405
0.00348337
0.00906752
0.0141185
0.0155912
0.0135779
0.00816879
0.0035549
1.42166e-15
2.77655e-14
5.24666e-13
9.11622e-12
1.44499e-10
2.06996e-09
2.64946e-08
2.98742e-07
2.9144e-06
2.40247e-05
0.000162066
0.00085489
0.0032963
0.00839175
0.0125511
0.0136073
0.011622
0.00666904
0.00283037
1.31497e-15
2.56723e-14
4.84898e-13
8.42054e-12
1.33377e-10
1.90891e-09
2.44044e-08
2.74746e-07
2.67467e-06
2.19837e-05
0.000147661
0.000773735
0.00295013
0.00735483
0.0105676
0.0112353
0.00938808
0.00508172
0.00207481
9.96513e-16
1.94493e-14
3.67228e-13
6.37431e-12
1.0091e-10
1.44322e-09
1.84342e-08
2.07287e-07
2.01474e-06
1.65228e-05
0.000110623
0.00057675
0.00218033
0.00534737
0.0074328
0.00776619
0.00635927
0.00324693
0.00126584
4.42816e-16
8.63472e-15
1.62887e-13
2.82471e-12
4.4673e-11
6.38246e-10
8.14306e-09
9.14525e-08
8.8763e-07
7.26746e-06
4.85577e-05
0.00025247
0.00095051
0.00231436
0.00317166
0.00328828
0.00266761
0.00132435
0.00050393
1.28707e-16
2.50682e-15
4.72358e-14
8.18203e-13
1.29248e-11
1.84436e-10
2.35021e-09
2.63606e-08
2.55505e-07
2.08887e-06
1.39339e-05
7.23063e-05
0.000271529
0.00065856
0.000896284
0.000925653
0.000747397
0.000365805
0.00013743
2.71931e-17
5.28973e-16
9.95525e-15
1.7223e-13
2.71726e-12
3.87262e-11
4.92844e-10
5.52062e-09
5.34375e-08
4.36261e-07
2.90575e-06
1.50539e-05
5.64219e-05
0.000136491
0.000185022
0.000190654
0.00015351
7.45188e-05
2.77901e-05
4.47818e-18
8.6998e-17
1.63524e-15
2.82545e-14
4.452e-13
6.3368e-12
8.05394e-11
9.00977e-10
8.70941e-09
7.10056e-08
4.72266e-07
2.44301e-06
9.14132e-06
2.20705e-05
2.98401e-05
3.07029e-05
2.46753e-05
1.19155e-05
4.42292e-06
6.023e-19
1.16854e-17
2.19362e-16
3.78538e-15
5.95684e-14
8.46769e-13
1.07482e-11
1.20078e-10
1.1592e-09
9.43787e-09
6.26857e-08
3.2381e-07
1.20983e-06
2.9162e-06
3.93552e-06
4.04501e-06
3.24649e-06
1.56204e-06
5.78004e-07
6.8363e-20
1.32456e-18
2.4833e-17
4.27972e-16
6.72599e-15
9.54855e-14
1.21042e-12
1.35049e-11
1.30199e-10
1.05862e-09
7.02176e-09
3.62218e-08
1.35144e-07
3.25286e-07
4.38368e-07
4.50197e-07
3.60947e-07
1.73211e-07
6.39536e-08
6.70746e-21
1.29785e-19
2.43008e-18
4.18257e-17
6.56476e-16
9.30747e-15
1.17831e-13
1.31293e-12
1.2641e-11
1.02644e-10
6.79923e-10
3.50269e-09
1.30511e-08
3.13724e-08
4.22311e-08
4.33423e-08
3.47202e-08
1.66283e-08
6.12985e-09
5.79375e-22
1.11954e-20
2.09352e-19
3.59861e-18
5.64084e-17
7.98709e-16
1.00982e-14
1.12372e-13
1.08049e-12
8.76196e-12
5.7963e-11
2.98209e-10
1.10969e-09
2.66424e-09
3.58304e-09
3.67532e-09
2.94207e-09
1.40682e-09
5.18009e-10
4.46824e-23
8.62251e-22
1.6103e-20
2.76442e-19
4.32761e-18
6.11963e-17
7.72705e-16
8.58725e-15
8.24611e-14
6.67816e-13
4.41202e-12
2.26695e-11
8.4251e-11
2.02043e-10
2.71504e-10
2.78367e-10
2.22692e-10
1.06351e-10
3.91264e-11
2.9167e-24
5.62141e-23
1.04857e-21
1.79792e-20
2.81118e-19
3.97044e-18
5.00724e-17
5.55788e-16
5.33057e-15
4.31173e-14
2.84514e-13
1.46012e-12
5.42023e-12
1.29848e-11
1.74375e-11
1.78713e-11
1.42895e-11
6.81762e-12
2.50666e-12
)
;

boundaryField
{
    top
    {
        type            zeroGradient;
    }
    left
    {
        type            fixedValue;
        value           uniform 0;
    }
    bottom
    {
        type            zeroGradient;
    }
    right
    {
        type            zeroGradient;
    }
    frontAndBack
    {
        type            empty;
    }
}


// ************************************************************************* //
