/*--------------------------------*- C++ -*----------------------------------*\
| =========                 |                                                 |
| \\      /  F ield         | OpenFOAM: The Open Source CFD Toolbox           |
|  \\    /   O peration     | Version:  v1806                                 |
|   \\  /    A nd           | Web:      www.OpenFOAM.com                      |
|    \\/     M anipulation  |                                                 |
\*---------------------------------------------------------------------------*/
FoamFile
{
    version     2.0;
    format      ascii;
    class       volScalarField;
    location    "0.07";
    object      T;
}
// * * * * * * * * * * * * * * * * * * * * * * * * * * * * * * * * * * * * * //

dimensions      [0 0 0 1 0 0 0];


internalField   nonuniform List<scalar> 
1881
(
1.70317e-26
1.57049e-26
-1.48922e-26
-6.26489e-25
-1.18606e-23
-2.0064e-22
-3.0787e-21
-4.24879e-20
-5.21179e-19
-5.59882e-18
-5.16827e-17
-3.99771e-16
-2.50273e-15
-1.20537e-14
-4.12267e-14
-8.70625e-14
-8.70054e-14
-4.14615e-14
-1.44661e-14
-4.23773e-26
-4.71688e-26
-7.4125e-26
-5.89029e-25
-1.1586e-23
-2.24969e-22
-3.9335e-21
-6.12577e-20
-8.41617e-19
-1.007e-17
-1.03107e-16
-8.81887e-16
-6.08899e-15
-3.22455e-14
-1.20558e-13
-2.73546e-13
-2.73925e-13
-1.21911e-13
-3.86156e-14
-2.17146e-25
-2.1623e-25
-9.23221e-26
2.37286e-24
4.50105e-23
7.13562e-22
1.01457e-20
1.28405e-19
1.42521e-18
1.36045e-17
1.08783e-16
7.02067e-16
3.45772e-15
1.1839e-14
2.35716e-14
1.85756e-14
1.76603e-14
2.26363e-14
1.43616e-14
-3.33293e-26
2.18175e-26
5.83316e-25
1.11004e-23
2.0717e-22
3.56822e-21
5.58874e-20
7.87964e-19
9.88369e-18
1.08689e-16
1.02832e-15
8.16368e-15
5.25297e-14
2.60351e-13
9.165e-13
1.98374e-12
1.98388e-12
9.23445e-13
3.12264e-13
2.24211e-24
2.38791e-24
3.07395e-24
1.49408e-23
2.58941e-22
4.8675e-21
8.32618e-20
1.2739e-18
1.72455e-17
2.03782e-16
2.06431e-15
1.7494e-14
1.19827e-13
6.30225e-13
2.34282e-12
5.29391e-12
5.30042e-12
2.36797e-12
7.54633e-13
5.15133e-24
4.95903e-24
2.69402e-24
-3.70803e-23
-7.10364e-22
-1.10843e-20
-1.54451e-19
-1.90612e-18
-2.04775e-17
-1.86968e-16
-1.4011e-15
-8.14501e-15
-3.28867e-14
-6.54384e-14
1.02901e-13
8.19818e-13
8.36078e-13
1.2311e-13
-8.20667e-14
-1.27388e-23
-1.46919e-23
-2.61694e-23
-2.16629e-22
-3.71938e-21
-6.3368e-20
-9.86315e-19
-1.3826e-17
-1.72456e-16
-1.88614e-15
-1.77499e-14
-1.40179e-13
-8.9738e-13
-4.42561e-12
-1.55071e-11
-3.34404e-11
-3.34396e-11
-1.56208e-11
-5.30899e-12
-7.91567e-23
-8.16393e-23
-9.60428e-23
-3.56099e-22
-5.5588e-21
-1.0122e-19
-1.69169e-18
-2.53793e-17
-3.37792e-16
-3.9327e-15
-3.93203e-14
-3.29376e-13
-2.23297e-12
-1.16382e-11
-4.29311e-11
-9.64564e-11
-9.6557e-11
-4.33678e-11
-1.39358e-11
-2.20628e-23
-7.84193e-24
3.82062e-23
5.66927e-22
8.93577e-21
1.3212e-19
1.74e-18
1.9898e-17
1.9107e-16
1.44969e-15
7.44653e-15
8.34922e-15
-2.79197e-13
-3.04833e-12
-1.64211e-11
-4.57447e-11
-4.60136e-11
-1.68594e-11
-3.58498e-12
7.78598e-22
8.30948e-22
1.0447e-21
4.14159e-21
6.01246e-20
1.0049e-18
1.54994e-17
2.15441e-16
2.66481e-15
2.89006e-14
2.69676e-13
2.11154e-12
1.34005e-11
6.5515e-11
2.27642e-10
4.87525e-10
4.8743e-10
2.29216e-10
7.86211e-11
1.64137e-21
1.59233e-21
1.75183e-21
6.82152e-21
1.08347e-19
1.93335e-18
3.16381e-17
4.65718e-16
6.09374e-15
6.98607e-14
6.8878e-13
5.69662e-12
3.81739e-11
1.96889e-10
7.19693e-10
1.60594e-09
1.60728e-09
7.26589e-10
2.35795e-10
-5.31178e-21
-5.94013e-21
-7.02699e-21
-1.21577e-20
-7.43043e-20
-8.1982e-19
-7.68156e-18
-3.72505e-17
4.29765e-16
1.47279e-14
2.35768e-13
2.65419e-12
2.22207e-11
1.35899e-10
5.66685e-10
1.38518e-09
1.38924e-09
5.75586e-10
1.61742e-10
-2.66638e-20
-2.71861e-20
-2.98704e-20
-7.26463e-20
-8.44771e-19
-1.37317e-17
-2.09077e-16
-2.87056e-15
-3.50602e-14
-3.75289e-13
-3.45444e-12
-2.66647e-11
-1.66715e-10
-8.02544e-10
-2.74576e-09
-5.80361e-09
-5.80068e-09
-2.7627e-09
-9.63816e-10
1.27688e-20
1.88971e-20
2.29765e-20
-5.88538e-20
-1.8026e-18
-3.26464e-17
-5.25439e-16
-7.6025e-15
-9.78864e-14
-1.10547e-12
-1.07472e-11
-8.77238e-11
-5.8067e-10
-2.9611e-09
-1.07148e-08
-2.37247e-08
-2.37396e-08
-1.08112e-08
-3.54727e-09
3.18394e-19
3.34822e-19
3.56328e-19
3.69251e-19
-1.16708e-20
-1.08892e-17
-2.42857e-16
-4.36856e-15
-6.67281e-14
-8.67427e-13
-9.50127e-12
-8.59839e-11
-6.22965e-10
-3.43847e-09
-1.33119e-08
-3.09915e-08
-3.10458e-08
-1.34724e-08
-4.10494e-09
3.9871e-19
3.55519e-19
3.2054e-19
7.32498e-19
9.29039e-18
1.50789e-16
2.2552e-15
3.03315e-14
3.62296e-13
3.78552e-12
3.39375e-11
2.54472e-10
1.54089e-09
7.16142e-09
2.36054e-08
4.82507e-08
4.81884e-08
2.37099e-08
8.61695e-09
-2.98678e-18
-3.26108e-18
-3.55417e-18
-2.57566e-18
2.27222e-17
4.66324e-16
7.43787e-15
1.05946e-13
1.34318e-12
1.49448e-11
1.43221e-10
1.153e-09
7.53143e-09
3.79257e-08
1.35666e-07
2.97702e-07
2.97821e-07
1.36806e-07
4.54547e-08
-9.99334e-18
-9.98671e-18
-9.90172e-18
-8.62868e-18
1.57581e-17
4.7285e-16
8.25075e-15
1.2659e-13
1.71815e-12
2.03674e-11
2.07108e-10
1.7628e-09
1.21331e-08
6.41471e-08
2.39732e-07
5.44173e-07
5.44792e-07
2.422e-07
7.66957e-08
1.70675e-17
2.03831e-17
2.44996e-17
2.53759e-17
-3.64035e-17
-1.08216e-15
-1.59674e-14
-2.03866e-13
-2.28438e-12
-2.21045e-11
-1.8033e-10
-1.19997e-09
-6.21111e-09
-2.327e-08
-5.63305e-08
-7.62128e-08
-7.52033e-08
-5.56308e-08
-2.83871e-08
1.50537e-16
1.5688e-16
1.63929e-16
1.55294e-16
-1.4034e-16
-5.27516e-15
-8.46183e-14
-1.18678e-12
-1.4797e-11
-1.61917e-10
-1.52615e-09
-1.20847e-08
-7.7653e-08
-3.84791e-07
-1.35575e-06
-2.93893e-06
-2.93929e-06
-1.3662e-06
-4.61545e-07
8.28542e-17
5.54584e-17
1.82467e-17
-4.84377e-17
-5.87416e-16
-9.39366e-15
-1.50821e-13
-2.2036e-12
-2.86818e-11
-3.27484e-10
-3.21899e-09
-2.65674e-08
-1.77815e-07
-9.16726e-07
-3.35179e-06
-7.48418e-06
-7.48978e-06
-3.38278e-06
-1.09718e-06
-1.62949e-15
-1.75932e-15
-1.92169e-15
-2.08357e-15
-2.14676e-15
-1.46646e-15
-4.85752e-15
-2.83194e-13
-6.67494e-12
-1.08656e-10
-1.36933e-09
-1.36523e-08
-1.06211e-07
-6.18906e-07
-2.49728e-06
-5.98034e-06
-5.99301e-06
-2.52952e-06
-7.35919e-07
-4.14899e-15
-4.07809e-15
-3.96399e-15
-3.66745e-15
-8.74203e-16
4.22613e-14
6.88785e-13
9.44958e-12
1.14933e-10
1.22544e-09
1.12414e-08
8.65231e-08
5.39716e-07
2.59367e-06
8.8642e-06
1.87281e-05
1.87203e-05
8.92176e-06
3.11681e-06
1.11438e-14
1.28302e-14
1.49753e-14
1.7631e-14
2.65589e-14
1.40693e-13
1.89512e-12
2.6673e-11
3.38342e-10
3.7721e-09
3.62443e-08
2.92706e-07
1.91895e-06
9.70249e-06
3.48554e-05
7.67714e-05
7.68056e-05
3.51507e-05
1.16236e-05
7.07066e-14
7.31951e-14
7.61208e-14
7.91329e-14
8.75747e-14
2.01877e-13
2.08162e-12
3.02259e-11
4.03893e-10
4.73533e-09
4.77153e-08
4.03056e-07
2.75678e-06
1.45008e-05
5.39784e-05
0.000122203
0.000122322
5.45043e-05
1.73295e-05
7.96989e-15
-7.1318e-15
-2.64257e-14
-4.88487e-14
-8.42102e-14
-2.8235e-13
-2.703e-12
-3.24156e-11
-3.54478e-10
-3.34257e-09
-2.63465e-08
-1.6678e-07
-7.97056e-07
-2.57686e-06
-4.39282e-06
-1.14675e-06
-9.83349e-07
-4.25559e-06
-3.19775e-06
-8.11839e-13
-8.71131e-13
-9.43049e-13
-1.0202e-12
-1.14981e-12
-2.14531e-12
-1.63368e-11
-2.11387e-10
-2.60658e-09
-2.83717e-08
-2.66234e-07
-2.0998e-06
-1.34451e-05
-6.642e-05
-0.000233431
-0.000505142
-0.000505188
-0.000235215
-7.96846e-05
-1.6828e-12
-1.62075e-12
-1.536e-12
-1.43177e-12
-1.39627e-12
-3.00944e-12
-3.10283e-11
-4.33241e-10
-5.53829e-09
-6.22684e-08
-6.03463e-07
-4.91615e-06
-3.25144e-05
-0.00016584
-0.000600752
-0.00133219
-0.00133292
-0.000605965
-0.000198531
6.17374e-12
6.99801e-12
8.0023e-12
9.07771e-12
1.0157e-11
1.01412e-11
-9.60784e-12
-3.31034e-10
-4.70859e-09
-5.64513e-08
-5.78846e-07
-4.96615e-06
-3.4448e-05
-0.000183509
-0.000690709
-0.00157686
-0.00157852
-0.000697521
-0.000219033
3.16324e-11
3.25195e-11
3.34849e-11
3.43154e-11
3.514e-11
3.88779e-11
8.78526e-11
7.24193e-10
8.05492e-09
8.14813e-08
7.07225e-07
5.1124e-06
2.96706e-05
0.000131219
0.000408633
0.00079028
0.000788661
0.000410072
0.000158754
-1.02446e-11
-1.82581e-11
-2.81027e-11
-3.90366e-11
-5.03742e-11
-5.0353e-11
1.40537e-10
2.97426e-09
3.81249e-08
4.18373e-07
3.94895e-06
3.13344e-05
0.000201938
0.00100442
0.00355436
0.00773673
0.00773825
0.00358235
0.00120442
-3.87809e-10
-4.14065e-10
-4.44475e-10
-4.75238e-10
-5.04546e-10
-5.10866e-10
-1.63069e-10
5.17383e-09
7.30599e-08
8.26341e-07
8.0025e-06
6.51274e-05
0.000430421
0.00219444
0.00794822
0.0176268
0.0176358
0.00801623
0.00262654
-6.33841e-10
-5.90552e-10
-5.34755e-10
-4.66599e-10
-3.83757e-10
-2.67977e-10
1.62713e-10
5.04085e-09
6.80781e-08
7.9608e-07
8.01253e-06
6.76661e-05
0.000462995
0.00243756
0.00908517
0.0205948
0.0206125
0.00916982
0.00291044
3.28085e-09
3.67699e-09
4.14042e-09
4.63175e-09
5.14624e-09
5.65996e-09
5.85844e-09
1.86761e-09
-4.82178e-08
-5.32059e-07
-4.42228e-06
-2.97515e-05
-0.000156422
-0.000601801
-0.00153024
-0.0022651
-0.0022481
-0.00152578
-0.00073823
1.37368e-08
1.40025e-08
1.42514e-08
1.44094e-08
1.44481e-08
1.42395e-08
1.20779e-08
-1.49608e-08
-3.42239e-07
-3.85264e-06
-3.62294e-05
-0.000285766
-0.00183057
-0.00905238
-0.0318625
-0.0690638
-0.0690722
-0.0321084
-0.0108595
-1.15482e-08
-1.57232e-08
-2.06502e-08
-2.60712e-08
-3.20085e-08
-3.87069e-08
-4.97279e-08
-1.14231e-07
-8.35729e-07
-8.67326e-06
-8.24954e-05
-0.000664284
-0.00434944
-0.021985
-0.0790203
-0.174218
-0.174285
-0.079672
-0.0263264
-1.82312e-07
-1.93649e-07
-2.06088e-07
-2.18399e-07
-2.30396e-07
-2.42223e-07
-2.58355e-07
-3.44028e-07
-1.31704e-06
-1.20903e-05
-0.000115365
-0.000943304
-0.00627656
-0.0322242
-0.117499
-0.262
-0.262144
-0.118505
-0.0385364
-2.18751e-07
-1.91625e-07
-1.58463e-07
-1.19415e-07
-7.39412e-08
-2.16769e-08
3.51836e-08
5.63367e-08
-4.95323e-07
-7.76242e-06
-8.13248e-05
-0.000696003
-0.00480706
-0.0255165
-0.0957951
-0.218363
-0.218549
-0.0966731
-0.0304292
1.69604e-06
1.88098e-06
2.08806e-06
2.30594e-06
2.53401e-06
2.77182e-06
3.0228e-06
3.34477e-06
4.40973e-06
1.28259e-05
8.33069e-05
0.000584532
0.00342698
0.0154576
0.0493779
0.0980789
0.0979609
0.0496482
0.0186977
5.82463e-06
5.87225e-06
5.89618e-06
5.87446e-06
5.79369e-06
5.64394e-06
5.43405e-06
5.41148e-06
8.6538e-06
4.75074e-05
0.000410776
0.0032213
0.0206738
0.10254
0.362119
0.787256
0.787381
0.364934
0.122965
-8.00004e-06
-1.01145e-05
-1.26149e-05
-1.54111e-05
-1.84748e-05
-2.17765e-05
-2.52504e-05
-2.833e-05
-2.44015e-05
5.65853e-05
0.000848673
0.00708205
0.0463641
0.233375
0.835265
1.83557
1.83612
0.84197
0.279514
-8.19305e-05
-8.78052e-05
-9.43852e-05
-0.00010021
-0.000105271
-0.000109567
-0.000113039
-0.000114821
-0.000104264
3.25936e-05
0.00133459
0.0116064
0.0767336
0.388845
1.40009
3.09158
3.0927
1.4115
0.465512
-6.27522e-05
-3.6745e-05
-1.028e-05
1.65626e-05
4.37839e-05
7.13795e-05
9.9424e-05
0.000129086
0.000174873
0.000392715
0.00220984
0.0163937
0.106525
0.540081
1.9503
4.31806
4.31978
1.96653
0.646725
0.00108479
0.00131333
0.00134833
0.00138338
0.00141845
0.00145355
0.00148878
0.00152556
0.0015814
0.00184505
0.00404839
0.0212922
0.13115
0.660942
2.38852
5.29607
5.29826
2.40835
0.79085
0.00250914
0.00272569
0.00275962
0.00279362
0.00282758
0.0028615
0.00289551
0.00293116
0.00298785
0.00327472
0.005714
0.02487
0.147128
0.737658
2.66626
5.91693
5.91941
2.68835
0.882162
0.00386726
0.00406987
0.0041018
0.00413395
0.00416607
0.00419814
0.0042303
0.00426417
0.00432
0.00461632
0.00716322
0.0272039
0.155231
0.774147
2.79711
6.20946
6.21207
2.82022
0.925422
0.00514943
0.00533829
0.00536813
0.00539839
0.00542863
0.00545882
0.0054891
0.00552111
0.00557531
0.00587266
0.00844616
0.0287176
0.158271
0.784766
2.83313
6.28935
6.292
2.8565
0.937808
0.00635522
0.00653054
0.00655823
0.00658657
0.00661489
0.00664318
0.00667154
0.00670162
0.00675386
0.00704878
0.00961568
0.0298487
0.159171
0.784576
2.82945
6.27989
6.28252
2.85276
0.937313
0.00748384
0.00764578
0.00767123
0.00769757
0.00772393
0.00775024
0.00777663
0.00780474
0.00785492
0.00814695
0.010703
0.0308623
0.159718
0.782846
2.82019
6.2578
6.26042
2.8434
0.935005
0.00853507
0.00868397
0.00870732
0.00873186
0.00875648
0.00878109
0.00880582
0.00883232
0.0088809
0.00917093
0.0117208
0.0318405
0.160447
0.782361
2.8157
6.24648
6.24909
2.83885
0.934198
0.00951812
0.00965514
0.0096775
0.00970142
0.00972556
0.00974978
0.00977418
0.00980039
0.00984869
0.0101382
0.0126851
0.0327829
0.161249
0.782479
2.81358
6.24059
6.2432
2.83669
0.934117
0.0104519
0.0105779
0.0105999
0.0106232
0.0106463
0.010669
0.0106913
0.010715
0.0107604
0.0110462
0.0135866
0.0336574
0.161966
0.782428
2.81096
6.23356
6.23616
2.83399
0.933811
0.0112594
0.0113571
0.0113606
0.0113658
0.0113711
0.0113761
0.0113811
0.0113876
0.011416
0.0116852
0.0142093
0.0342634
0.16254
0.78284
2.81067
6.2318
6.23437
2.83354
0.933914
0.0114403
0.0114277
0.0114255
0.0114255
0.0114258
0.0114261
0.0114265
0.0114286
0.0114529
0.0117191
0.0142499
0.0343822
0.163165
0.78585
2.82119
6.25446
6.25703
2.84415
0.93754
0.0114457
0.0114328
0.0114302
0.01143
0.0114302
0.0114305
0.0114309
0.0114331
0.0114577
0.0117268
0.0142847
0.0346342
0.16481
0.794215
2.85137
6.32101
6.32364
2.87465
0.947644
0.0114622
0.0114504
0.011448
0.0114484
0.0114492
0.0114501
0.0114511
0.011454
0.0114796
0.0117534
0.0143513
0.0350233
0.167305
0.807059
2.89841
6.42605
6.42878
2.9222
0.963137
0.0115041
0.0114933
0.0114914
0.0114925
0.011494
0.0114955
0.0114973
0.0115009
0.0115273
0.0118045
0.014431
0.0353417
0.169245
0.817259
2.93683
6.5138
6.51663
2.96107
0.975401
0.0115668
0.0115568
0.011555
0.0115561
0.0115578
0.0115595
0.0115614
0.0115651
0.0115913
0.0118654
0.0144635
0.0351666
0.167864
0.810668
2.91526
6.47029
6.47314
2.93932
0.967359
0.0116183
0.0116082
0.0116052
0.0116052
0.0116057
0.0116062
0.0116068
0.011609
0.0116326
0.0118909
0.0143506
0.0339694
0.15982
0.770079
2.77056
6.15431
6.15698
2.79314
0.918269
0.0115939
0.0115826
0.0115766
0.0115733
0.0115706
0.0115678
0.011565
0.0115636
0.0115811
0.0118069
0.0139838
0.0313587
0.142827
0.683674
2.4587
5.46599
5.46817
2.47801
0.813923
0.0114084
0.0113944
0.0113836
0.011375
0.0113668
0.0113585
0.0113502
0.011343
0.0113512
0.011529
0.0132895
0.0273375
0.117318
0.553665
1.98668
4.41877
4.42015
2.001
0.657057
0.0109841
0.0109667
0.0109498
0.0109345
0.0109196
0.0109045
0.0108893
0.0108749
0.010872
0.0109938
0.0122666
0.0223986
0.0869528
0.39898
1.42301
3.16389
3.16427
1.43136
0.470555
0.0102837
0.0102628
0.0102401
0.0102181
0.0101963
0.0101745
0.0101526
0.0101312
0.0101175
0.0101858
0.0109916
0.0173565
0.0573407
0.248714
0.874153
1.93874
1.93812
0.876688
0.289516
0.00932754
0.00930425
0.00927686
0.00924966
0.00922259
0.00919547
0.0091683
0.00914148
0.00911953
0.00914623
0.0095869
0.0129922
0.0335871
0.129352
0.43772
0.962451
0.961031
0.435624
0.14583
0.00818593
0.0081616
0.00813167
0.00810142
0.00807126
0.00804109
0.00801091
0.00798101
0.00795424
0.00795562
0.00817004
0.00972764
0.0181508
0.0536091
0.161141
0.342722
0.340774
0.156084
0.0547495
0.00695008
0.00692609
0.00689564
0.00686453
0.00683344
0.00680239
0.00677136
0.0067406
0.00671222
0.00670283
0.00681521
0.00752609
0.0103168
0.0176581
0.0310025
0.0509582
0.0487456
0.0245094
0.0116129
0.00570184
0.00567917
0.00564971
0.00561933
0.00558895
0.00555861
0.00552833
0.00549832
0.00547056
0.00545961
0.0055479
0.00604545
0.00737811
0.00730329
-0.00453328
-0.0281668
-0.03046
-0.0114411
-0.000661116
0.00449924
0.00447849
0.004451
0.00442243
0.00439382
0.00436527
0.0043368
0.00430863
0.00428273
0.00427396
0.00436776
0.00490033
0.00646322
0.00753177
-0.000552602
-0.0179342
-0.0201896
-0.00732761
-4.09887e-05
0.00338195
0.00336358
0.00333881
0.00331292
0.00328697
0.00326109
0.00323531
0.00320984
0.00318662
0.00318035
0.00327851
0.00385076
0.00576847
0.00892165
0.00833831
0.0039637
0.00184671
0.00202054
0.00229203
0.00238499
0.00236946
0.00234823
0.00232593
0.00230357
0.0022813
0.00225915
0.00223731
0.00221751
0.00221301
0.00230378
0.00283812
0.00471706
0.00840009
0.0108343
0.0120393
0.0101739
0.00528183
0.00275726
0.00154519
0.00153295
0.00151604
0.0014982
0.00148033
0.00146257
0.00144495
0.00142761
0.00141194
0.0014086
0.00148205
0.00191404
0.0034383
0.00645171
0.00853998
0.00973719
0.00823487
0.0040644
0.00191482
0.000893944
0.000885197
0.00087302
0.000860151
0.000847279
0.000834516
0.000821887
0.000809498
0.000798327
0.000795907
0.000847781
0.00115223
0.00221673
0.00424848
0.00531914
0.00545024
0.00437751
0.00211699
0.000979862
0.00044255
0.000437076
0.000429415
0.000421315
0.000413231
0.000405244
0.000397369
0.00038967
0.000382738
0.000381127
0.000412408
0.000596468
0.00123704
0.00243152
0.00291898
0.00271004
0.00205553
0.000961717
0.000425322
0.000172992
0.000170132
0.000166115
0.000161871
0.000157653
0.000153504
0.000149434
0.000145473
0.000141908
0.000140966
0.000156174
0.000246604
0.000562749
0.00115526
0.00140317
0.0013123
0.000990422
0.00043925
0.000168541
4.20121e-05
4.0873e-05
3.92711e-05
3.75842e-05
3.59181e-05
3.42925e-05
3.27103e-05
3.11817e-05
2.98041e-05
2.93414e-05
3.44695e-05
6.57951e-05
0.000176763
0.000390094
0.000500167
0.000510096
0.00039884
0.000166409
5.02323e-05
-3.51082e-06
-3.76575e-06
-4.12357e-06
-4.49588e-06
-4.85636e-06
-5.20003e-06
-5.52645e-06
-5.83493e-06
-6.11578e-06
-6.28814e-06
-5.83852e-06
-2.41591e-06
1.04499e-05
3.70523e-05
5.67758e-05
7.05577e-05
5.81642e-05
1.9226e-05
-5.91073e-07
-9.4049e-06
-9.35418e-06
-9.28181e-06
-9.20219e-06
-9.11854e-06
-9.03144e-06
-8.94124e-06
-8.84951e-06
-8.76948e-06
-8.8015e-06
-9.55084e-06
-1.3648e-05
-2.78015e-05
-5.4624e-05
-6.82013e-05
-6.8716e-05
-5.44923e-05
-2.57548e-05
-1.13028e-05
-4.41546e-06
-4.33943e-06
-4.23201e-06
-4.11776e-06
-4.00344e-06
-3.89033e-06
-3.77871e-06
-3.66963e-06
-3.5724e-06
-3.55924e-06
-4.07115e-06
-7.04856e-06
-1.75238e-05
-3.76982e-05
-4.85391e-05
-5.03508e-05
-3.98905e-05
-1.71906e-05
-5.80211e-06
-5.1816e-07
-4.88152e-07
-4.45954e-07
-4.0164e-07
-3.58113e-07
-3.15924e-07
-2.75156e-07
-2.36029e-07
-2.00728e-07
-1.8658e-07
-3.00643e-07
-1.01858e-06
-3.58027e-06
-8.47917e-06
-1.07099e-05
-1.03744e-05
-7.79138e-06
-2.92791e-06
-5.46477e-07
5.20411e-07
5.20701e-07
5.20979e-07
5.20981e-07
5.2058e-07
5.19751e-07
5.18513e-07
5.16962e-07
5.15849e-07
5.2084e-07
5.65981e-07
7.99129e-07
1.59955e-06
3.13969e-06
4.06107e-06
4.37697e-06
3.58431e-06
1.70084e-06
7.40419e-07
2.81557e-07
2.76495e-07
2.69323e-07
2.61674e-07
2.53999e-07
2.46387e-07
2.3886e-07
2.31494e-07
2.24978e-07
2.24646e-07
2.63104e-07
4.83831e-07
1.25678e-06
2.72255e-06
3.39337e-06
3.2912e-06
2.51229e-06
1.05552e-06
3.37082e-07
6.76703e-09
4.97293e-09
2.45778e-09
-1.7073e-10
-2.73499e-09
-5.20115e-09
-7.56481e-09
-9.81705e-09
-1.1862e-08
-1.29253e-08
-8.16255e-09
2.41692e-08
1.41064e-07
3.62989e-07
4.45011e-07
3.92468e-07
2.735e-07
8.46409e-08
-5.04919e-09
-4.3439e-08
-4.31244e-08
-4.26694e-08
-4.21668e-08
-4.164e-08
-4.10938e-08
-4.05307e-08
-3.99618e-08
-3.948e-08
-3.97979e-08
-4.52436e-08
-7.4745e-08
-1.76678e-07
-3.68057e-07
-4.51535e-07
-4.29228e-07
-3.26315e-07
-1.43276e-07
-5.30967e-08
-1.10335e-08
-1.06659e-08
-1.01476e-08
-9.59946e-09
-9.05617e-09
-8.52439e-09
-8.00545e-09
-7.50348e-09
-7.05639e-09
-6.96181e-09
-9.05529e-09
-2.14847e-08
-6.54723e-08
-1.4945e-07
-1.87788e-07
-1.82074e-07
-1.37832e-07
-5.45452e-08
-1.36577e-08
4.77354e-09
4.79417e-09
4.82126e-09
4.84627e-09
4.86629e-09
4.88081e-09
4.89002e-09
4.89501e-09
4.90452e-09
4.98434e-09
5.52976e-09
8.24968e-09
1.74362e-08
3.43376e-08
4.08603e-08
3.70557e-08
2.77331e-08
1.30383e-08
5.82842e-09
2.35808e-09
2.30356e-09
2.22638e-09
2.14424e-09
2.06211e-09
1.98097e-09
1.90108e-09
1.82326e-09
1.75496e-09
1.75437e-09
2.17966e-09
4.61917e-09
1.32155e-08
2.97043e-08
3.77815e-08
3.77578e-08
2.91584e-08
1.19088e-08
3.37146e-09
-5.04702e-10
-5.13297e-10
-5.25114e-10
-5.37083e-10
-5.48268e-10
-5.58493e-10
-5.67762e-10
-5.76181e-10
-5.84509e-10
-5.98306e-10
-6.50382e-10
-8.7984e-10
-1.62711e-09
-2.96988e-09
-3.45602e-09
-3.07031e-09
-2.31142e-09
-1.20821e-09
-6.60521e-10
-3.79254e-10
-3.71498e-10
-3.60499e-10
-3.48756e-10
-3.3697e-10
-3.2528e-10
-3.13723e-10
-3.02436e-10
-2.92648e-10
-2.93934e-10
-3.6528e-10
-7.68566e-10
-2.18865e-09
-4.92348e-09
-6.31627e-09
-6.42166e-09
-5.00611e-09
-2.05713e-09
-5.93048e-10
7.10807e-11
7.24464e-11
7.43255e-11
7.62346e-11
7.80266e-11
7.96746e-11
8.11787e-11
8.25548e-11
8.39201e-11
8.61372e-11
9.43187e-11
1.30315e-10
2.48791e-10
4.69828e-10
5.8716e-10
5.99979e-10
4.82423e-10
2.39e-10
1.14769e-10
5.27753e-11
5.16027e-11
4.99423e-11
4.81722e-11
4.6399e-11
4.46439e-11
4.29124e-11
4.1225e-11
3.97655e-11
3.99726e-11
5.07262e-11
1.11526e-10
3.25799e-10
7.37949e-10
9.42386e-10
9.47851e-10
7.34028e-10
2.98404e-10
8.30317e-11
-1.43358e-11
-1.44473e-11
-1.45973e-11
-1.47437e-11
-1.48732e-11
-1.49833e-11
-1.50746e-11
-1.51512e-11
-1.52477e-11
-1.56261e-11
-1.78755e-11
-2.89446e-11
-6.67353e-11
-1.38962e-10
-1.78551e-10
-1.8636e-10
-1.48979e-10
-6.68415e-11
-2.54261e-11
-6.13073e-12
-5.95144e-12
-5.69856e-12
-5.43045e-12
-5.16372e-12
-4.90163e-12
-4.64492e-12
-4.39628e-12
-4.18025e-12
-4.19e-12
-5.62198e-12
-1.38114e-11
-4.27262e-11
-9.80123e-11
-1.23072e-10
-1.19126e-10
-9.01334e-11
-3.55969e-11
-8.94002e-12
2.80179e-12
2.79204e-12
2.77729e-12
2.75996e-12
2.74053e-12
2.71913e-12
2.69595e-12
2.67196e-12
2.6556e-12
2.71216e-12
3.24133e-12
6.00644e-12
1.55747e-11
3.37689e-11
4.2465e-11
4.19576e-11
3.24029e-11
1.37725e-11
4.55148e-12
2.84944e-13
2.63468e-13
2.33384e-13
2.01808e-13
1.70797e-13
1.4075e-13
1.1173e-13
8.3914e-14
5.90195e-14
5.07996e-14
1.45421e-13
7.3127e-13
2.83647e-12
6.88639e-12
8.64978e-12
8.23823e-12
6.12283e-12
2.23838e-12
3.60755e-13
-4.32355e-13
-4.25757e-13
-4.16375e-13
-4.06283e-13
-3.96057e-13
-3.85812e-13
-3.75587e-13
-3.65555e-13
-3.57273e-13
-3.62905e-13
-4.57555e-13
-9.75099e-13
-2.78639e-12
-6.23606e-12
-7.78987e-12
-7.51667e-12
-5.70164e-12
-2.32013e-12
-6.64422e-13
1.05703e-13
1.06756e-13
1.08191e-13
1.09628e-13
1.10947e-13
1.12126e-13
1.1317e-13
1.14115e-13
1.15288e-13
1.19191e-13
1.41053e-13
2.4756e-13
6.0926e-13
1.28529e-12
1.57448e-12
1.48382e-12
1.12155e-12
4.88831e-13
1.77604e-13
4.95057e-14
4.80848e-14
4.60851e-14
4.39679e-14
4.18639e-14
3.97985e-14
3.77775e-14
3.58249e-14
3.41637e-14
3.45593e-14
4.79902e-14
1.23662e-13
3.91562e-13
9.09598e-13
1.16723e-12
1.17767e-12
9.11229e-13
3.62428e-13
9.22185e-14
-2.23337e-14
-2.21902e-14
-2.19832e-14
-2.17544e-14
-2.15142e-14
-2.12649e-14
-2.1008e-14
-2.07527e-14
-2.05827e-14
-2.11501e-14
-2.64736e-14
-5.44033e-14
-1.51591e-13
-3.37859e-13
-4.30033e-13
-4.31864e-13
-3.35267e-13
-1.3929e-13
-4.2318e-14
5.33771e-16
5.94384e-16
6.78749e-16
7.66404e-16
8.51372e-16
9.32528e-16
1.00977e-15
1.08307e-15
1.15149e-15
1.20636e-15
1.18813e-15
8.07569e-16
-7.54611e-16
-3.85616e-15
-4.67599e-15
-3.42117e-15
-1.81681e-15
3.37348e-16
1.24004e-15
)
;

boundaryField
{
    top
    {
        type            zeroGradient;
    }
    left
    {
        type            fixedValue;
        value           uniform 0;
    }
    bottom
    {
        type            zeroGradient;
    }
    right
    {
        type            zeroGradient;
    }
    frontAndBack
    {
        type            empty;
    }
}


// ************************************************************************* //
